      -----------------------------------------------------------      
     |                   =====================                   |     
     |                           x T B                           |     
     |                   =====================                   |     
     |                         S. Grimme                         |     
     |          Mulliken Center for Theoretical Chemistry        |     
     |                    University of Bonn                     |     
      -----------------------------------------------------------      

   * xtb version 6.6.1 (8d0f1dd) compiled by 'conda@1efc2f54142f' on 2023-08-01

   xtb is free software: you can redistribute it and/or modify it under
   the terms of the GNU Lesser General Public License as published by
   the Free Software Foundation, either version 3 of the License, or
   (at your option) any later version.
   
   xtb is distributed in the hope that it will be useful,
   but WITHOUT ANY WARRANTY; without even the implied warranty of
   MERCHANTABILITY or FITNESS FOR A PARTICULAR PURPOSE.  See the
   GNU Lesser General Public License for more details.
   
   Cite this work as:
   * C. Bannwarth, E. Caldeweyher, S. Ehlert, A. Hansen, P. Pracht,
     J. Seibert, S. Spicher, S. Grimme, WIREs Comput. Mol. Sci., 2020, 11,
     e01493. DOI: 10.1002/wcms.1493
   
   for GFN2-xTB:
   * C. Bannwarth, S. Ehlert and S. Grimme., J. Chem. Theory Comput., 2019,
     15, 1652-1671. DOI: 10.1021/acs.jctc.8b01176
   for GFN1-xTB:
   * S. Grimme, C. Bannwarth, P. Shushkov, J. Chem. Theory Comput., 2017,
     13, 1989-2009. DOI: 10.1021/acs.jctc.7b00118
   for GFN0-xTB:
   * P. Pracht, E. Caldeweyher, S. Ehlert, S. Grimme, ChemRxiv, 2019, preprint.
     DOI: 10.26434/chemrxiv.8326202.v1
   for GFN-FF:
   * S. Spicher and S. Grimme, Angew. Chem. Int. Ed., 2020, 59, 15665-15673.
     DOI: 10.1002/anie.202004239
   
   for ALPB and GBSA implicit solvation:
   * S. Ehlert, M. Stahn, S. Spicher, S. Grimme, J. Chem. Theory Comput.,
     2021, 17, 4250-4261. DOI: 10.1021/acs.jctc.1c00471
   
   for DFT-D4:
   * E. Caldeweyher, C. Bannwarth and S. Grimme, J. Chem. Phys., 2017,
     147, 034112. DOI: 10.1063/1.4993215
   * E. Caldeweyher, S. Ehlert, A. Hansen, H. Neugebauer, S. Spicher,
     C. Bannwarth and S. Grimme, J. Chem. Phys., 2019, 150, 154122.
     DOI: 10.1063/1.5090222
   * E. Caldeweyher, J.-M. Mewes, S. Ehlert and S. Grimme, Phys. Chem. Chem. Phys.
     2020, 22, 8499-8512. DOI: 10.1039/D0CP00502A
   
   for sTDA-xTB:
   * S. Grimme and C. Bannwarth, J. Chem. Phys., 2016, 145, 054103.
     DOI: 10.1063/1.4959605
   
   in the mass-spec context:
   * V. Asgeirsson, C. Bauer and S. Grimme, Chem. Sci., 2017, 8, 4879.
     DOI: 10.1039/c7sc00601b
   * J. Koopman and S. Grimme, ACS Omega 2019, 4, 12, 15120-15133.
     DOI: 10.1021/acsomega.9b02011
   
   for metadynamics refer to:
   * S. Grimme, J. Chem. Theory Comput., 2019, 155, 2847-2862
     DOI: 10.1021/acs.jctc.9b00143
   
   for SPH calculations refer to:
   * S. Spicher and S. Grimme, J. Chem. Theory Comput., 2021, 17, 1701-1714
     DOI: 10.1021/acs.jctc.0c01306
   
   with help from (in alphabetical order)
   P. Atkinson, C. Bannwarth, F. Bohle, G. Brandenburg, E. Caldeweyher
   M. Checinski, S. Dohm, S. Ehlert, S. Ehrlich, I. Gerasimov, C. Hölzer
   A. Katbashev, J. Koopman, C. Lavigne, S. Lehtola, F. März, M. Müller,
   F. Musil, H. Neugebauer, J. Pisarek, C. Plett, P. Pracht, F. Pultar,
   J. Seibert, P. Shushkov, S. Spicher, M. Stahn, M. Steiner, T. Strunk,
   J. Stückrath, T. Rose, and J. Unsleber
   
 * started run on 2025/05/27 at 09:37:32.789     

           -------------------------------------------------
          |                Calculation Setup                |
           -------------------------------------------------

          program call               : xtb substructure_6.pdb --gfnff --input xtb_settings.inp --opt vtight --alpb water --verbose
          coordinate file            : substructure_6.pdb
          xtbhome directory          : /home/dargen3
          path for xtb               : /home/dargen3
          xcontrol input file        : xtb_settings.inp
          omp threads                :                     1

$$$$$$$$$$$$$$$$$$$$$$$$$$$$$$$$$$$$$$$$$$$$$$$$$$$$$$$$$$$$$$$$$$$$$$$$
 CONSTRAINTS & SCANS: DEBUG SECTION
$$$$$$$$$$$$$$$$$$$$$$$$$$$$$$$$$$$$$$$$$$$$$$$$$$$$$$$$$$$$$$$$$$$$$$$$
   ID    Z sym.   atoms
    1    6  C     1, 4-6, 8, 16-18, 20, 21, 23, 33-35, 37, 38, 40, 50-52,
                  60-62, 70
    2    8  O     2, 7, 9, 10, 19, 36, 53, 63
    3    7  N     3, 15, 22, 24, 32, 39, 41, 49, 59, 69
    4    1  H     11-14, 25-31, 42-48, 54-58, 64-68, 71, 72
> constrain
-> atoms: 1, 2, 3, 4, 5, 6, 7, 8, 9, 10, 11, 12, 13, 14, 15, 16, 17, 18, 19, 20, 21, 22, 23, 24, 25, 26, 27, 28, 29, 30, 31, 33, 49, 50, 51, 52, 53, 54, 55, 56, 57, 58, 59, 60, 61, 62, 63, 64, 65, 66, 67, 68, 69, 70, 71, 72
--> 1: 1
--> 2: 2
--> 3: 3
--> 4: 4
--> 5: 5
--> 6: 6
--> 7: 7
--> 8: 8
--> 9: 9
--> 10: 10
--> 11: 11
--> 12: 12
--> 13: 13
--> 14: 14
--> 15: 15
--> 16: 16
--> 17: 17
--> 18: 18
--> 19: 19
--> 20: 20
--> 21: 21
--> 22: 22
--> 23: 23
--> 24: 24
--> 25: 25
--> 26: 26
--> 27: 27
--> 28: 28
--> 29: 29
--> 30: 30
--> 31: 31
--> 32: 33
--> 33: 49
--> 34: 50
--> 35: 51
--> 36: 52
--> 37: 53
--> 38: 54
--> 39: 55
--> 40: 56
--> 41: 57
--> 42: 58
--> 43: 59
--> 44: 60
--> 45: 61
--> 46: 62
--> 47: 63
--> 48: 64
--> 49: 65
--> 50: 66
--> 51: 67
--> 52: 68
--> 53: 69
--> 54: 70
--> 55: 71
--> 56: 72
-> force constant=1.0
$$$$$$$$$$$$$$$$$$$$$$$$$$$$$$$$$$$$$$$$$$$$$$$$$$$$$$$$$$$$$$$$$$$$$$$$
           -------------------------------------------------
          |                   Constraints                   |
           -------------------------------------------------

 * 56 constrained atom positions
   positions refering to input geometry

     #   Z                                   position/Å      displ./Å
     1   6 C    -18.9340018   -18.7470017    17.5050016     0.0000000
     2   8 O    -19.1950018   -19.1760018    16.3990015     0.0000000
     3   7 N    -18.7040017   -17.4220016    17.7190016     0.0000000
     4   6 C    -18.6570017   -16.4630015    16.6330015     0.0000000
     5   6 C    -17.3720016   -16.5950015    15.8750015     0.0000000
     6   6 C    -18.8940018   -15.0280014    17.1510016     0.0000000
     7   8 O    -16.3490015   -16.1150015    16.3030015     0.0000000
     8   6 C    -18.0550017   -14.7100014    18.3740017     0.0000000
     9   8 O    -18.3600017   -15.2980014    19.4050018     0.0000000
    10   8 O    -17.1470016   -13.8980013    18.2420017     0.0000000
    11   1 H    -18.5630017   -17.0600016    18.6740017     0.0000000
    12   1 H    -19.4840018   -16.7400016    15.9550015     0.0000000
    13   1 H    -18.6690017   -14.3020013    16.3640015     0.0000000
    14   1 H    -19.9470019   -14.8960014    17.4260016     0.0000000
    15   7 N    -17.4240016   -17.3450016    14.7560014     0.0000000
    16   6 C    -16.2960015   -17.4860016    13.8690013     0.0000000
    17   6 C    -15.9500015   -16.1510015    13.2560012     0.0000000
    18   6 C    -16.5320015   -18.5330017    12.7740012     0.0000000
    19   8 O    -16.5360015   -15.7550015    12.2700011     0.0000000
    20   6 C    -15.3470014   -18.7950017    11.9030011     0.0000000
    21   6 C    -14.1960013   -18.0400017    11.7630011     0.0000000
    22   7 N    -15.2310014   -19.8200018    11.0030010     0.0000000
    23   6 C    -14.0240013   -19.6380018    10.3750010     0.0000000
    24   7 N    -13.3980012   -18.5730017    10.8230010     0.0000000
    25   1 H    -18.2560017   -17.8800017    14.5120013     0.0000000
    26   1 H    -15.4430014   -17.8140017    14.4900013     0.0000000
    27   1 H    -16.8630016   -19.4720018    13.2280012     0.0000000
    28   1 H    -17.3560016   -18.1830017    12.1450011     0.0000000
    29   1 H    -15.9160015   -20.5520019    10.8220010     0.0000000
    30   1 H    -13.9670013   -17.1250016    12.2870011     0.0000000
    31   1 H    -13.6280013   -20.2790019     9.5980009     0.0000000
    33   6 C    -14.3680013   -14.2880013    13.1920012     0.0000000
    49   7 N    -14.1100013   -14.9070014    10.8520010     0.0000000
    50   6 C    -13.3720012   -15.2880014     9.6620009     0.0000000
    51   6 C    -12.3750011   -14.2100013     9.3460009     0.0000000
    52   6 C    -14.2820013   -15.5560014     8.4780008     0.0000000
    53   8 O    -12.7650012   -13.1090012     9.0220008     0.0000000
    54   1 H    -15.1320014   -14.8570014    10.7700010     0.0000000
    55   1 H    -12.8200012   -16.2080015     9.9230009     0.0000000
    56   1 H    -13.7120013   -15.8760015     7.6040007     0.0000000
    57   1 H    -15.0210014   -16.3240015     8.7100008     0.0000000
    58   1 H    -14.8150014   -14.6440014     8.2080008     0.0000000
    59   7 N    -11.0600010   -14.5250013     9.4730009     0.0000000
    60   6 C    -10.0120009   -13.5880013     9.1230008     0.0000000
    61   6 C    -10.1260009   -13.2300012     7.6560007     0.0000000
    62   6 C     -8.6290008   -14.1230013     9.4420009     0.0000000
    63   8 O    -10.0280009   -14.1020013     6.8180006     0.0000000
    64   1 H    -10.7620010   -15.4690014     9.7200009     0.0000000
    65   1 H    -10.2070009   -12.6790012     9.7150009     0.0000000
    66   1 H     -8.4270008   -15.0110014     8.8420008     0.0000000
    67   1 H     -7.8560007   -13.3880012     9.2150009     0.0000000
    68   1 H     -8.5440008   -14.3990013    10.4930010     0.0000000
    69   7 N    -10.3140010   -11.9130011     7.3370007     0.0000000
    70   6 C    -10.2890010   -11.4620011     5.9580006     0.0000000
    71   1 H    -10.2510010   -11.1880010     8.0510007     0.0000000
    72   1 H    -11.0010010   -12.1110011     5.4230005     0.0000000

     applying 1540 atom pairwise harmonic potentials
       applied force constant per pair:     0.0181818
     effective force constant per atom:     1.0000000
         constraining energy/grad norm:     0.0000000     0.0000000

     total constraint energy/grad norm:     0.0000000     0.0000000

          charge from pdb residues: 0

          entering GFN-FF setup routine... 72

          ==================== Thresholds ====================
          CN  :   150.00000
          rep :   500.00000
          disp:  2500.00000
          HB1 :   250.00000
          HB2 :   450.00000

          Pauling EN used:
          Z : 1  EN :  2.20
          Z : 6  EN :  2.55
          Z : 7  EN :  3.04
          Z : 8  EN :  3.44
          electric field strengths (au): 0.000

           ------------------------------------------------- 
          |           Force Field Initialization            |
           ------------------------------------------------- 

          distances ...
          ----------------------------------------
          generating topology and atomic info file ...
          pair mat ...
          computing topology distances matrix with Floyd-Warshall algo ...
          making topology EEQ charges ...
          #fragments for EEQ constrain from pdb file: 7
          ----------------------------------------
          generating topology and atomic info file ...
          pair mat ...
          computing topology distances matrix with Floyd-Warshall algo ...
          making topology EEQ charges ...
          #fragments for EEQ constrain from pdb file: 7
          rings ...
          # BATM   728
          # H in HB   30
          doing iterative Hueckel for 9 subsystem(s) ...
          iterative Hueckel run to get P ...
Hueckel system :  1 charge :   0 ndim/Nel :    3    3   eps(HOMO/LUMO)   -0.973902   -0.973902
Hueckel system :  2 charge :   0 ndim/Nel :    3    4   eps(HOMO/LUMO)   -0.885914   -0.885914
Hueckel system :  3 charge :   0 ndim/Nel :    3    3   eps(HOMO/LUMO)   -0.832705   -0.832705
Hueckel system :  4 charge :   0 ndim/Nel :    3    4   eps(HOMO/LUMO)   -0.897889   -0.897889
Hueckel system :  5 charge :   0 ndim/Nel :    5    6   eps(HOMO/LUMO)   -1.252816    3.251823
Hueckel system :  6 charge :   0 ndim/Nel :    3    4   eps(HOMO/LUMO)   -0.901840   -0.901840
Hueckel system :  7 charge :   0 ndim/Nel :    5    6   eps(HOMO/LUMO)   -1.251227    3.252690
Hueckel system :  8 charge :   0 ndim/Nel :    3    4   eps(HOMO/LUMO)   -0.903057   -0.903057
Hueckel system :  9 charge :   0 ndim/Nel :    4    4   eps(HOMO/LUMO)   -2.208857    2.538676

  atom   neighbors  erfCN metchar sp-hybrid imet pi  qest     coordinates
    1   C      2    1.93   0.00        -2    0    1   0.112  -35.780074  -35.426696   33.079656
    2   O      1    0.98   0.00         2    0    1  -0.112  -36.273293  -36.237388   30.989619
    3   N      3    2.79   0.00        -3    0    1  -0.126  -35.345437  -32.922809   33.484057
    4   C      4    3.49   0.00         3    0    0   0.037  -35.256620  -31.110561   31.431815
    5   C      3    2.80   0.00         2    0    1   0.220  -32.828322  -31.360005   29.999402
    6   C      4    3.49   0.00         3    0    0  -0.031  -35.704485  -28.398804   32.410693
    7   O      1    0.98   0.00         2    0    1  -0.316  -30.895132  -30.452936   30.808205
    8   C      3    2.79   0.00         2    0    1   0.279  -34.119005  -27.797871   34.721828
    9   O      1    0.98   0.00         2    0    1  -0.308  -34.695372  -28.909030   36.670135
   10   O      1    0.98   0.00         2    0    1  -0.308  -32.403134  -26.263414   34.472384
   11   H      1    0.98   0.00         0    0    0   0.174  -35.078986  -32.238728   35.288746
   12   H      1    0.97   0.01         0    0    0   0.119  -36.819424  -31.634015   30.150580
   13   H      1    0.97   0.00         0    0    0   0.130  -35.279297  -27.026863   30.923478
   14   H      1    0.97   0.00         0    0    0   0.130  -37.694367  -28.149360   32.930367
   15   N      3    2.80   0.00        -3    0    1  -0.235  -32.926588  -32.777300   27.884799
   16   C      4    3.49   0.00         3    0    0   0.036  -30.794977  -33.043751   26.208612
   17   C      3    2.80   0.00         2    0    1   0.168  -30.141132  -30.520967   25.050210
   18   C      4    3.49   0.00         3    0    0  -0.036  -31.240952  -35.022294   24.139362
   19   O      1    0.98   0.00         2    0    1  -0.370  -31.248511  -29.772635   23.186940
   20   C      3    2.96   0.00         2    0    1   0.044  -29.001627  -35.517403   22.493410
   21   C      3    3.05   0.00         2    0    1   0.033  -26.826552  -34.090659   22.228848
   22   N      3    2.88   0.00         3    0    1  -0.192  -28.782419  -37.454372   20.792657
   23   C      3    3.10   0.00         2    0    1   0.078  -26.501519  -37.110442   19.605909
   24   N      2    2.00   0.00         2    0    1  -0.186  -25.318551  -35.097883   20.452506
   25   H      1    0.98   0.00         0    0    0   0.147  -34.498840  -33.788303   27.423706
   26   H      1    0.97   0.01         0    0    0   0.071  -29.183041  -33.663581   27.382132
   27   H      1    0.97   0.00         0    0    0   0.073  -31.866452  -36.796747   24.997297
   28   H      1    0.97   0.00         0    0    0   0.073  -32.798087  -34.360890   22.950724
   29   H      1    0.98   0.00         0    0    0   0.139  -30.076881  -38.837651   20.450616
   30   H      1    0.97   0.00         0    0    0   0.078  -26.393805  -32.361560   23.219065
   31   H      1    0.97   0.00         0    0    0   0.076  -25.753188  -38.321756   18.137591
   32   N      3    2.80   0.00        -3    0    1  -0.190  -28.302428  -29.150915   26.155699
   33   C      4    3.50   0.00         3    0    0   0.029  -27.151585  -27.000407   24.929267
   34   C      3    2.80   0.00         2    0    1   0.167  -25.509413  -27.890468   22.791987
   35   C      4    3.49   0.00         3    0    0  -0.032  -25.704055  -25.301543   26.771750
   36   O      1    0.98   0.00         2    0    1  -0.374  -23.288985  -28.338333   23.151035
   37   C      3    2.97   0.00         2    0    1   0.044  -27.395360  -23.640474   28.277862
   38   C      3    3.05   0.00         2    0    1   0.034  -29.381462  -24.328334   29.827437
   39   N      3    2.88   0.00         3    0    1  -0.191  -27.340558  -21.055328   28.281641
   40   C      3    3.10   0.00         2    0    1   0.077  -29.285086  -20.308887   29.825547
   41   N      2    2.01   0.00         2    0    1  -0.194  -30.517187  -22.253415   30.749623
   42   H      1    0.98   0.00         0    0    0   0.137  -27.357565  -29.831217   27.693936
   43   H      1    0.97   0.01         0    0    0   0.073  -28.714388  -25.883579   24.109126
   44   H      1    0.97   0.00         0    0    0   0.071  -24.543763  -26.469394   28.020859
   45   H      1    0.97   0.00         0    0    0   0.071  -24.379357  -24.128023   25.704055
   46   H      1    0.98   0.00         0    0    0   0.134  -26.125464  -19.923383   27.306543
   47   H      1    0.97   0.00         0    0    0   0.073  -30.010741  -26.235068   30.228059
   48   H      1    0.97   0.00         0    0    0   0.070  -29.770745  -18.364358   30.235618
   49   N      3    2.80   0.00        -3    0    1  -0.180  -26.664036  -28.170147   20.507308
   50   C      4    3.49   0.00         3    0    0   0.032  -25.269418  -28.890133   18.258534
   51   C      3    2.80   0.00         2    0    1   0.164  -23.385361  -26.853008   17.661380
   52   C      4    3.49   0.00         3    0    0  -0.058  -26.989069  -29.396580   16.021098
   53   O      1    0.98   0.00         2    0    1  -0.376  -24.122354  -24.772420   17.049109
   54   H      1    0.98   0.00         0    0    0   0.136  -28.595336  -28.075661   20.352350
   55   H      1    0.97   0.01         0    0    0   0.071  -24.226289  -30.628681   18.751752
   56   H      1    0.97   0.00         0    0    0   0.070  -25.911925  -30.001292   14.369477
   57   H      1    0.97   0.00         0    0    0   0.070  -28.385576  -30.847889   16.459515
   58   H      1    0.97   0.00         0    0    0   0.070  -27.996293  -27.673149   15.510872
   59   N      3    2.80   0.00        -3    0    1  -0.177  -20.900371  -27.448272   17.901376
   60   C      4    3.49   0.00         3    0    0   0.033  -18.919938  -25.677599   17.239971
   61   C      3    2.80   0.00         2    0    1   0.153  -19.135367  -25.001077   14.467743
   62   C      4    3.49   0.00         3    0    0  -0.058  -16.306447  -26.688602   17.842794
   63   O      1    0.98   0.00         2    0    1  -0.372  -18.950174  -26.648918   12.884153
   64   H      1    0.98   0.00         0    0    0   0.136  -20.337233  -29.232173   18.368138
   65   H      1    0.97   0.01         0    0    0   0.072  -19.288435  -23.959838   18.358689
   66   H      1    0.97   0.00         0    0    0   0.071  -15.924722  -28.366679   16.708958
   67   H      1    0.97   0.00         0    0    0   0.071  -14.845688  -25.299653   17.413826
   68   H      1    0.97   0.00         0    0    0   0.071  -16.145820  -27.210166   19.828896
   69   N      3    2.79   0.00         3    0    1  -0.046  -19.490635  -22.512307   13.864921
   70   C      2    1.92   0.00        -2    0    1  -0.252  -19.443392  -21.660041   11.258988
   71   H      1    0.98   0.00         0    0    0   0.117  -19.371583  -21.142256   15.214185
   72   H      1    0.97   0.01         0    0    0   0.182  -20.788877  -22.886473   10.247985

molecular fragment  # atoms  topo charge
       1             2            -0.000
       2            12             0.000
       3            17            -0.000
       4            17            -0.000
       5            10             0.000
       6            10             0.000
       7             4             0.000


          #atoms :   72
          #bonds :   73

 bond atoms        type  in ring    R      R0    piBO    fqq  kbond(tot)  alp
 O  C     2    1      2    0     1.215   0.996   0.797   1.047  -0.251   0.584
 N  C     3    1      2    0     1.362   1.215   0.504   1.047  -0.235   0.524
 C  N     4    3      1    0     1.450   1.326 -99.000   1.047  -0.153   0.496
 C  C     5    4      1    0     1.498   1.333 -99.000   1.000  -0.160   0.475
 C  C     6    4      1    0     1.544   1.371 -99.000   1.036  -0.154   0.468
 O  C     7    5      2    0     1.208   1.033   0.850   1.047  -0.260   0.584
 C  C     8    6      1    0     1.517   1.331 -99.000   1.047  -0.168   0.475
 O  C     9    8      2    0     1.225   1.058   0.703   1.047  -0.236   0.584
 O  C    10    8      2    0     1.225   1.058   0.703   1.047  -0.236   0.584
 H  N    11    3      1    0     1.031   0.890 -99.000   1.047  -0.176   0.551
 H  C    12    4      1    0     1.105   0.976 -99.000   1.000  -0.161   0.482
 H  C    13    6      1    0     1.094   0.976 -99.000   1.046  -0.168   0.482
 H  C    14    6      1    0     1.096   0.976 -99.000   1.046  -0.168   0.482
 N  C    15    5      2    0     1.348   1.262   0.514   1.047  -0.237   0.524
 C  N    16   15      1    0     1.442   1.326 -99.000   1.047  -0.153   0.496
 C  C    17   16      1    0     1.509   1.333 -99.000   1.000  -0.160   0.475
 C  C    18   16      1    0     1.533   1.371 -99.000   1.037  -0.154   0.468
 O  C    19   17      2    0     1.213   1.032   0.856   1.047  -0.261   0.584
 C  C    20   18      1    0     1.494   1.341 -99.000   1.039  -0.166   0.475
 C  C    21   20      2    5     1.384   1.247   0.755   1.008  -0.273   0.491
 N  C    22   20      2    5     1.369   1.267   0.555   1.047  -0.250   0.524
 C  N    23   22      2    5     1.373   1.275   0.559   1.047  -0.250   0.524
 N  C    24   21      2    5     1.343   1.228   0.550   1.047  -0.239   0.519
 N  C    24   23      2    5     1.314   1.195   0.749   1.047  -0.278   0.519
 H  N    25   15      1    0     1.019   0.890 -99.000   1.047  -0.176   0.551
 H  C    26   16      1    0     1.105   0.976 -99.000   1.003  -0.162   0.482
 H  C    27   18      1    0     1.094   0.976 -99.000   1.044  -0.168   0.482
 H  C    28   18      1    0     1.094   0.976 -99.000   1.044  -0.168   0.482
 H  N    29   22      1    0     1.019   0.894 -99.000   1.047  -0.176   0.551
 H  C    30   21      1    0     1.079   0.965 -99.000   1.003  -0.174   0.490
 H  C    31   23      1    0     1.082   0.967 -99.000   1.000  -0.174   0.490
 N  C    32   17      2    0     1.347   1.263   0.504   1.047  -0.235   0.524
 C  N    33   32      1    0     1.445   1.326 -99.000   1.047  -0.153   0.496
 C  C    34   33      1    0     1.502   1.333 -99.000   1.000  -0.160   0.475
 C  C    35   33      1    0     1.531   1.371 -99.000   1.034  -0.153   0.468
 O  C    36   34      2    0     1.214   1.031   0.857   1.047  -0.262   0.584
 C  C    37   35      1    0     1.486   1.341 -99.000   1.038  -0.166   0.475
 C  C    38   37      2    5     1.382   1.247   0.755   1.008  -0.272   0.491
 N  C    39   37      2    5     1.368   1.268   0.556   1.047  -0.250   0.524
 C  N    40   39      2    5     1.372   1.275   0.559   1.047  -0.250   0.524
 N  C    41   38      2    5     1.343   1.228   0.550   1.047  -0.239   0.519
 N  C    41   40      2    5     1.313   1.195   0.750   1.047  -0.278   0.519
 H  N    42   32      1    0     1.021   0.890 -99.000   1.047  -0.176   0.551
 H  C    43   33      1    0     1.105   0.977 -99.000   1.004  -0.162   0.482
 H  C    44   35      1    0     1.094   0.976 -99.000   1.043  -0.168   0.482
 H  C    45   35      1    0     1.094   0.976 -99.000   1.043  -0.168   0.482
 H  N    46   39      1    0     1.019   0.894 -99.000   1.047  -0.176   0.551
 H  C    47   38      1    0     1.083   0.964 -99.000   1.003  -0.174   0.490
 H  C    48   40      1    0     1.083   0.967 -99.000   1.000  -0.174   0.490
 N  C    49   34      2    0     1.363   1.264   0.502   1.047  -0.234   0.524
 C  N    50   49      1    0     1.451   1.326 -99.000   1.047  -0.153   0.496
 C  C    51   50      1    0     1.502   1.333 -99.000   1.000  -0.160   0.475
 C  C    52   50      1    0     1.517   1.371 -99.000   1.041  -0.154   0.468
 O  C    53   51      2    0     1.212   1.031   0.857   1.047  -0.262   0.584
 H  N    54   49      1    0     1.026   0.890 -99.000   1.047  -0.176   0.551
 H  C    55   50      1    0     1.104   0.976 -99.000   1.004  -0.162   0.482
 H  C    56   52      1    0     1.091   0.976 -99.000   1.046  -0.168   0.482
 H  C    57   52      1    0     1.091   0.976 -99.000   1.046  -0.168   0.482
 H  C    58   52      1    0     1.090   0.976 -99.000   1.046  -0.168   0.482
 N  C    59   51      2    0     1.358   1.264   0.502   1.047  -0.234   0.524
 C  N    60   59      1    0     1.449   1.326 -99.000   1.047  -0.153   0.496
 C  C    61   60      1    0     1.514   1.332 -99.000   1.000  -0.160   0.475
 C  C    62   60      1    0     1.517   1.371 -99.000   1.041  -0.155   0.468
 O  C    63   61      2    0     1.213   1.014   0.951   1.047  -0.278   0.584
 H  N    64   59      1    0     1.020   0.890 -99.000   1.047  -0.176   0.551
 H  C    65   60      1    0     1.102   0.976 -99.000   1.004  -0.162   0.482
 H  C    66   62      1    0     1.091   0.976 -99.000   1.046  -0.168   0.482
 H  C    67   62      1    0     1.091   0.976 -99.000   1.046  -0.168   0.482
 H  C    68   62      1    0     1.090   0.976 -99.000   1.046  -0.168   0.482
 N  C    69   61      2    0     1.368   1.303   0.284   1.047  -0.191   0.524
 C  N    70   69      2    0     1.451   1.153   0.840   1.000  -0.287   0.524
 H  N    71   69      1    0     1.019   0.890 -99.000   1.047  -0.176   0.551
 H  C    72   70      1    0     1.102   0.903 -99.000   1.047  -0.182   0.490
          #angl  :   124

 angle atoms        phi0    phi      FC  pi rings
    1    3    2   145.000 121.537   0.082 F   0
    3    4    1   115.000 122.104   0.412 F   0
    3   11    1   115.000 120.685   0.337 F   0
    3   11    4   104.000 117.209   0.182 F   0
    4    5    3   109.500 110.406   0.307 F   0
    4    6    3   109.500 111.012   0.306 F   0
    4    6    5   109.500 112.545   0.305 F   0
    4   12    3   109.500 105.643   0.253 F   0
    4   12    5   109.500 108.034   0.253 F   0
    4   12    6   109.500 108.908   0.252 F   0
    5    7    4   120.000 120.803   0.178 F   0
    5   15    4   120.000 115.851   0.241 F   0
    5   15    7   120.000 123.207   0.173 F   0
    6    8    4   109.500 112.362   0.303 F   0
    6   13    4   109.500 110.111   0.251 F   0
    6   13    8   109.500 109.093   0.250 F   0
    6   14    4   109.500 110.091   0.251 F   0
    6   14    8   109.500 107.685   0.250 F   0
    6   14   13   108.600 107.341   0.208 F   0
    8    9    6   120.000 116.109   0.175 F   0
    8   10    6   120.000 117.515   0.175 F   0
    8   10    9   122.000 126.375   0.253 F   0
   15   16    5   115.000 122.334   0.402 F   0
   15   25    5   115.000 121.496   0.328 F   0
   15   25   16   104.000 116.115   0.180 F   0
   16   17   15   109.500 110.042   0.306 F   0
   16   18   15   109.500 112.687   0.305 F   0
   16   18   17   109.500 110.441   0.305 F   0
   16   26   15   109.500 106.692   0.252 F   0
   16   26   17   109.500 108.293   0.252 F   0
   16   26   18   109.500 108.512   0.251 F   0
   17   19   16   120.000 120.531   0.179 F   0
   17   32   16   120.000 117.729   0.243 F   0
   17   32   19   120.000 121.740   0.176 F   0
   18   20   16   109.500 114.461   0.304 F   0
   18   27   16   109.500 109.647   0.251 F   0
   18   27   20   109.500 109.351   0.251 F   0
   18   28   16   109.500 107.941   0.251 F   0
   18   28   20   109.500 108.562   0.251 F   0
   18   28   27   108.600 106.572   0.208 F   0
   20   21   18   120.000 128.549   0.244 F   0
   20   22   18   120.000 125.582   0.245 F   0
   20   22   21   109.000 105.757   0.265 F   5
   21   24   20   109.000 110.394   0.265 F   5
   21   30   20   120.000 126.167   0.202 F   0
   21   30   24   120.000 123.382   0.203 F   0
   22   23   20   113.000 106.022   0.076 F   5
   22   29   20   113.000 126.715   0.174 F   0
   22   29   23   113.000 127.244   0.173 F   0
   23   24   22   109.000 111.737   0.264 F   5
   23   31   22   120.000 124.863   0.202 F   0
   23   31   24   120.000 123.397   0.202 F   0
   24   23   21   105.000 106.090   0.285 F   5
   32   33   17   115.000 122.232   0.408 F   0
   32   42   17   115.000 120.680   0.333 F   0
   32   42   33   104.000 115.437   0.181 F   0
   33   34   32   109.500 109.581   0.306 F   0
   33   35   32   109.500 112.782   0.306 F   0
   33   35   34   109.500 111.966   0.305 F   0
   33   43   32   109.500 106.391   0.253 F   0
   33   43   34   109.500 107.752   0.252 F   0
   33   43   35   109.500 108.080   0.251 F   0
   34   36   33   120.000 120.231   0.178 F   0
   34   49   33   120.000 116.276   0.243 F   0
   34   49   36   120.000 123.490   0.176 F   0
   35   37   33   109.500 112.791   0.304 F   0
   35   44   33   109.500 109.506   0.251 F   0
   35   44   37   109.500 110.378   0.251 F   0
   35   45   33   109.500 108.964   0.251 F   0
   35   45   37   109.500 109.097   0.251 F   0
   35   45   44   108.600 105.858   0.208 F   0
   37   38   35   120.000 128.349   0.244 F   0
   37   39   35   120.000 125.403   0.245 F   0
   37   39   38   109.000 106.177   0.265 F   5
   38   41   37   109.000 109.908   0.265 F   5
   38   47   37   120.000 126.525   0.202 F   0
   38   47   41   120.000 123.541   0.203 F   0
   39   40   37   113.000 105.832   0.076 F   5
   39   46   37   113.000 126.891   0.174 F   0
   39   46   40   113.000 127.266   0.173 F   0
   40   41   39   109.000 111.634   0.264 F   5
   40   48   39   120.000 124.825   0.202 F   0
   40   48   41   120.000 123.540   0.202 F   0
   41   40   38   105.000 106.449   0.284 F   5
   49   50   34   115.000 121.873   0.408 F   0
   49   54   34   115.000 120.797   0.333 F   0
   49   54   50   104.000 116.975   0.181 F   0
   50   51   49   109.500 108.764   0.306 F   0
   50   52   49   109.500 112.414   0.305 F   0
   50   52   51   109.500 111.145   0.305 F   0
   50   55   49   109.500 106.210   0.253 F   0
   50   55   51   109.500 108.415   0.252 F   0
   50   55   52   109.500 109.703   0.251 F   0
   51   53   50   120.000 119.642   0.179 F   0
   51   59   50   120.000 117.166   0.243 F   0
   51   59   53   120.000 123.174   0.176 F   0
   52   56   50   109.500 111.314   0.250 F   0
   52   57   50   109.500 111.393   0.250 F   0
   52   57   56   108.600 108.525   0.208 F   0
   52   58   50   109.500 109.799   0.250 F   0
   52   58   56   108.600 107.593   0.208 F   0
   52   58   57   108.600 108.085   0.208 F   0
   59   60   51   115.000 121.858   0.408 F   0
   59   64   51   115.000 121.334   0.334 F   0
   59   64   60   104.000 116.464   0.181 F   0
   60   61   59   109.500 109.420   0.306 F   0
   60   62   59   109.500 112.374   0.305 F   0
   60   62   61   109.500 110.840   0.305 F   0
   60   65   59   109.500 106.002   0.253 F   0
   60   65   61   109.500 108.182   0.252 F   0
   60   65   62   109.500 109.831   0.251 F   0
   61   63   60   120.000 119.543   0.179 F   0
   61   69   60   120.000 117.633   0.246 F   0
   61   69   63   120.000 122.813   0.179 F   0
   62   66   60   109.500 109.900   0.250 F   0
   62   67   60   109.500 111.395   0.250 F   0
   62   67   66   108.600 107.636   0.208 F   0
   62   68   60   109.500 111.298   0.250 F   0
   62   68   66   108.600 108.052   0.208 F   0
   62   68   67   108.600 108.427   0.208 F   0
   69   70   61   113.000 121.227   0.075 F   0
   69   71   61   113.000 120.850   0.231 F   0
   69   71   70   113.000 116.325   0.120 F   0
   70   72   69   145.000 105.497   0.089 F   0
 torsion atoms        nrot   rings    phi0    phi      FC
    3    1    4    2   2      0     180.000   4.725   0.722
    3    1   11    2   2      0     180.000 174.757   1.072
    4    3    5    1   3      0     180.000  74.985   0.024
    4    3    5   11   3      0     180.000 105.516   0.032
    4    3    6    1   3      0     180.000 159.486   0.023
    4    3    6   11   3      0     180.000  20.013   0.031
    4    3   12    1   3      0     180.000  41.578   0.034
    4    3   12   11   3      0     180.000 137.921   0.046
    5    4    7    3   3      0     180.000  78.996   0.069
    5    4    7    6   3      0     180.000  45.661   0.082
    5    4    7   12   3      0     180.000 165.937   0.121
    5    4   15    3   3      0     180.000  96.845   0.043
    5    4   15    6   3      0     180.000 138.498   0.051
    5    4   15   12   3      0     180.000  18.222   0.076
    6    4    8    3   3      0     180.000  47.445   0.082
    6    4    8    5   3      0     180.000  76.878   0.100
    6    4    8   12   3      0     180.000 163.352   0.143
    6    4   13    3   3      0     180.000 169.270   0.116
    6    4   13    5   3      0     180.000  44.946   0.143
    6    4   13   12   3      0     180.000  74.824   0.204
    6    4   14    3   3      0     180.000  72.571   0.116
    6    4   14    5   3      0     180.000 163.105   0.143
    6    4   14   12   3      0     180.000  43.335   0.204
    8    6    9    4   3      0     180.000  69.344   0.065
    8    6    9   13   3      0     180.000 168.254   0.097
    8    6    9   14   3      0     180.000  52.058   0.097
    8    6   10    4   3      0     180.000 110.728   0.065
    8    6   10   13   3      0     180.000  11.673   0.097
    8    6   10   14   3      0     180.000 127.869   0.097
   15    5   16    4   2      0     180.000 175.389   0.754
   15    5   16    7   2      0     180.000   8.881   1.022
   15    5   25    4   2      0     180.000   7.405   1.119
   15    5   25    7   2      0     180.000 168.325   1.516
   16   15   17    5   3      0     180.000  64.068   0.024
   16   15   17   25   3      0     180.000 118.585   0.034
   16   15   18    5   3      0     180.000 172.191   0.023
   16   15   18   25   3      0     180.000   5.156   0.032
   16   15   26    5   3      0     180.000  53.204   0.034
   16   15   26   25   3      0     180.000 124.144   0.048
   17   16   19   15   3      0     180.000  84.045   0.068
   17   16   19   18   3      0     180.000  40.992   0.080
   17   16   19   26   3      0     180.000 159.683   0.118
   17   16   32   15   3      0     180.000  95.924   0.042
   17   16   32   18   3      0     180.000 139.038   0.050
   17   16   32   26   3      0     180.000  20.347   0.074
   18   16   20   15   3      0     180.000 175.070   0.082
   18   16   20   17   3      0     180.000  61.410   0.100
   18   16   20   26   3      0     180.000  57.148   0.143
   18   16   27   15   3      0     180.000  51.776   0.117
   18   16   27   17   3      0     180.000 175.295   0.143
   18   16   27   26   3      0     180.000  66.146   0.204
   18   16   28   15   3      0     180.000  63.941   0.117
   18   16   28   17   3      0     180.000  59.579   0.143
   18   16   28   26   3      0     180.000 178.137   0.204
   20   18   21   16   3      0     180.000  15.365   0.046
   20   18   21   27   3      0     180.000 138.819   0.068
   20   18   21   28   3      0     180.000 105.281   0.068
   20   18   22   16   3      0     180.000 169.050   0.038
   20   18   22   27   3      0     180.000  45.596   0.056
   20   18   22   28   3      0     180.000  70.304   0.056
   21   20   24   18   2      5       0.000 176.493   0.730
   21   20   24   22   2      5       0.000   0.223   0.619
   21   20   30   18   2      5       0.000   0.827   1.207
   21   20   30   22   2      5       0.000 177.097   1.024
   22   20   23   18   2      5       0.000 176.697   0.583
   22   20   23   21   2      5       0.000   0.283   0.606
   22   20   29   18   2      5       0.000   1.787   0.830
   22   20   29   21   2      5       0.000 178.200   0.864
   23   22   24   20   2      5       0.000   0.263   0.592
   23   22   24   29   2      5       0.000 178.210   0.844
   23   22   31   20   2      5       0.000 179.704   0.979
   23   22   31   29   2      5       0.000   1.231   1.395
   24   21   23   20   2      5       0.000   0.064   0.585
   24   21   23   30   2      5       0.000 177.344   0.833
   24   23   21   22   2      5       0.000   0.124   0.704
   24   23   21   31   2      5       0.000 179.575   1.232
   32   17   33   16   2      0     180.000 166.392   0.630
   32   17   33   19   2      0     180.000  13.638   0.853
   32   17   42   16   2      0     180.000   1.709   0.934
   32   17   42   19   2      0     180.000 178.321   1.266
   33   32   34   17   3      0     180.000  71.217   0.023
   33   32   34   42   3      0     180.000  94.213   0.033
   33   32   35   17   3      0     180.000 163.332   0.022
   33   32   35   42   3      0     180.000  31.238   0.031
   33   32   43   17   3      0     180.000  45.012   0.033
   33   32   43   42   3      0     180.000 149.559   0.046
   34   33   36   32   3      0     180.000  91.073   0.067
   34   33   36   35   3      0     180.000  34.846   0.079
   34   33   36   43   3      0     180.000 153.564   0.117
   34   33   49   32   3      0     180.000  88.348   0.042
   34   33   49   35   3      0     180.000 145.733   0.049
   34   33   49   43   3      0     180.000  27.016   0.073
   35   33   37   32   3      0     180.000  77.852   0.081
   35   33   37   34   3      0     180.000 157.999   0.100
   35   33   37   43   3      0     180.000  39.476   0.142
   35   33   44   32   3      0     180.000  45.484   0.116
   35   33   44   34   3      0     180.000  78.665   0.142
   35   33   44   43   3      0     180.000 162.811   0.203
   35   33   45   32   3      0     180.000 160.841   0.116
   35   33   45   34   3      0     180.000  36.692   0.142
   35   33   45   43   3      0     180.000  81.832   0.203
   37   35   38   33   3      0     180.000  56.639   0.046
   37   35   38   44   3      0     180.000  66.210   0.068
   37   35   38   45   3      0     180.000 177.872   0.068
   37   35   39   33   3      0     180.000 119.846   0.037
   37   35   39   44   3      0     180.000 117.304   0.056
   37   35   39   45   3      0     180.000   1.386   0.056
   38   37   41   35   2      5       0.000 176.854   0.730
   38   37   41   39   2      5       0.000   0.164   0.620
   38   37   47   35   2      5       0.000   1.347   1.207
   38   37   47   39   2      5       0.000 178.365   1.024
   39   37   40   35   2      5       0.000 177.149   0.582
   39   37   40   38   2      5       0.000   0.018   0.606
   39   37   46   35   2      5       0.000   1.700   0.830
   39   37   46   38   2      5       0.000 178.831   0.864
   40   39   41   37   2      5       0.000   0.201   0.590
   40   39   41   46   2      5       0.000 178.643   0.841
   40   39   48   37   2      5       0.000 179.801   0.975
   40   39   48   46   2      5       0.000   0.957   1.389
   41   38   40   37   2      5       0.000   0.285   0.588
   41   38   40   47   2      5       0.000 178.551   0.838
   41   40   38   39   2      5       0.000   0.301   0.707
   41   40   38   48   2      5       0.000 179.907   1.237
   49   34   50   33   2      0     180.000 176.739   0.617
   49   34   50   36   2      0     180.000   3.861   0.837
   49   34   54   33   2      0     180.000  10.311   0.916
   49   34   54   36   2      0     180.000 169.088   1.241
   50   49   51   34   3      0     180.000  63.501   0.023
   50   49   51   54   3      0     180.000 123.293   0.033
   50   49   52   34   3      0     180.000 172.978   0.022
   50   49   52   54   3      0     180.000   0.227   0.031
   50   49   55   34   3      0     180.000  52.998   0.033
   50   49   55   54   3      0     180.000 120.207   0.046
   51   50   53   49   3      0     180.000  65.444   0.067
   51   50   53   52   3      0     180.000  58.831   0.079
   51   50   53   55   3      0     180.000 179.479   0.117
   51   50   59   49   3      0     180.000 113.044   0.042
   51   50   59   52   3      0     180.000 122.681   0.049
   51   50   59   55   3      0     180.000   2.033   0.073
   52   50   56   49   3      0     180.000 177.926   0.120
   52   50   56   51   3      0     180.000  59.893   0.147
   52   50   56   55   3      0     180.000  59.992   0.209
   52   50   57   49   3      0     180.000  56.651   0.120
   52   50   57   51   3      0     180.000 178.833   0.147
   52   50   57   55   3      0     180.000  61.282   0.209
   52   50   58   49   3      0     180.000  63.043   0.120
   52   50   58   51   3      0     180.000  59.139   0.147
   52   50   58   55   3      0     180.000 179.024   0.209
   59   51   60   50   2      0     180.000 176.477   0.611
   59   51   60   53   2      0     180.000   5.093   0.828
   59   51   64   50   2      0     180.000   3.452   0.907
   59   51   64   53   2      0     180.000 178.118   1.229
   60   59   61   51   3      0     180.000  60.554   0.023
   60   59   61   64   3      0     180.000 112.793   0.033
   60   59   62   51   3      0     180.000 175.870   0.022
   60   59   62   64   3      0     180.000  10.783   0.031
   60   59   65   51   3      0     180.000  55.889   0.033
   60   59   65   64   3      0     180.000 130.764   0.046
   61   60   63   59   3      0     180.000  60.544   0.067
   61   60   63   62   3      0     180.000  63.932   0.079
   61   60   63   65   3      0     180.000 175.597   0.117
   61   60   69   59   3      0     180.000 120.603   0.042
   61   60   69   62   3      0     180.000 114.921   0.049
   61   60   69   65   3      0     180.000   5.550   0.073
   62   60   66   59   3      0     180.000  63.402   0.120
   62   60   66   61   3      0     180.000  59.378   0.147
   62   60   66   65   3      0     180.000 178.864   0.210
   62   60   67   59   3      0     180.000 177.396   0.120
   62   60   67   61   3      0     180.000  59.824   0.147
   62   60   67   65   3      0     180.000  59.662   0.210
   62   60   68   59   3      0     180.000  56.256   0.120
   62   60   68   61   3      0     180.000 179.036   0.147
   62   60   68   65   3      0     180.000  61.477   0.210
   69   61   70   60   2      0     180.000 173.251   0.124
   69   61   70   63   2      0     180.000   5.562   0.168
   69   61   71   60   2      0     180.000   8.194   0.166
   69   61   71   63   2      0     180.000 170.619   0.226
   70   69   72   61   2      0     180.000  52.338   1.397
   70   69   72   71   2      0     180.000 141.962   1.991
 out-of-plane atoms          phi0    phi      FC
    3   11    1    4          0.000   0.439   0.292
    5    7   15    4          0.000   3.842  26.629
    8   10    9    6          0.000   0.072  28.400
   15   25    5   16          0.000   2.360  -0.135
   17   19   32   16          0.000   0.027  23.529
   20   22   21   18          0.000   2.916   0.442
   21   30   24   20          0.000  -2.429   0.425
   22   29   20   23          0.000  -1.458   0.019
   23   31   24   22          0.000   0.511   0.505
   32   42   17   33          0.000 -12.912   0.041
   34   36   49   33          0.000   0.539  23.462
   37   39   38   35          0.000   2.338   0.442
   38   47   41   37          0.000  -1.630   0.427
   39   46   37   40          0.000  -1.107   0.021
   40   48   41   39          0.000   0.367   0.502
   49   54   34   50          0.000   5.983   0.079
   51   53   59   50          0.000   1.397  23.297
   59   64   51   60          0.000  -5.920   0.091
   61   63   69   60          0.000  -1.052  26.887
   69   71   61   70          0.000 -12.739   0.355
          #tors  :   199
          #nmol  :   7
          #optfrag :   7

 GFN-FF setup done.

           ------------------------------------------------- 
          |                   G F N - F F                   |
          |          A general generic force-field          |
          |                  Version 1.0.3                  | 
           ------------------------------------------------- 
      * Solvation model:               ALPB
        Solvent                        water
        Parameter file                 internal GFN-FF/ALPB
        Dielectric constant                8.0200E+01
        Reference state                gsolv [1 M gas/solution]
        Free energy shift                  3.6494E-04 Eh       2.2900E-01 kcal/mol
        Temperature                        2.9815E+02 K
        Density                            1.0000E+00 kg/L
        Solvent mass                       1.8000E+01 g/mol
        Interaction kernel             P16
        Born radius scaling (c1)           1.5056E+00
        Born radii integrator          GBOBC
        Born offset                        0.0000E+00 a0       0.0000E+00 AA
        H-bond correction              true
        Ion screening                  false
        Surface tension                    1.0000E-05 Eh       1.5569E+01 dyn/cm
        Grid points                               230 per atom
          Number of HB bonds (bound hydrogen)     3186
          Number of HB bonds (unbound hydrogen)   190
          Number of XB bonds                      0

 E+G (total)                   0 d,  0 h,  0 min,  0.002 sec
 distance/D3 list               ...        0 min,  0.000 sec (  0.711%)
 non bonded repulsion           ...        0 min,  0.000 sec (  2.895%)
 dCN                            ...        0 min,  0.000 sec (  5.847%)
 EEQ energy and q               ...        0 min,  0.000 sec (  4.513%)
 D3                             ...        0 min,  0.000 sec (  8.363%)
 EEQ gradient                   ...        0 min,  0.000 sec (  4.070%)
 bonds                          ...        0 min,  0.000 sec (  0.692%)
 bend and torsion               ...        0 min,  0.000 sec (  2.469%)
 bonded ATM                     ...        0 min,  0.000 sec (  1.131%)
 HB/XB (incl list setup)        ...        0 min,  0.000 sec ( 17.554%)
 GBSA                           ...        0 min,  0.001 sec ( 54.504%)

         :::::::::::::::::::::::::::::::::::::::::::::::::::::
         ::                     SUMMARY                     ::
         :::::::::::::::::::::::::::::::::::::::::::::::::::::
         :: total energy             -13.473730035469 Eh    ::
         :: total w/o Gsolv          -13.408677761304 Eh    ::
         :: total w/o Gsasa/hb       -13.459242078392 Eh    ::
         :: gradient norm              0.197939558741 Eh/a0 ::
         ::.................................................::
         :: bond energy              -13.716731101914 Eh    ::
         :: angle energy               0.058610775906 Eh    ::
         :: torsion energy             0.020067485875 Eh    ::
         :: repulsion energy           0.916425952956 Eh    ::
         :: electrostat energy        -0.591363703555 Eh    ::
         :: dispersion energy         -0.070368150176 Eh    ::
         :: HB energy                 -0.007628736606 Eh    ::
         :: XB energy                  0.000000000000 Eh    ::
         :: bonded atm energy         -0.017690283790 Eh    ::
         :: external energy            0.000000000000 Eh    ::
         :: -> Gsolv                  -0.065052274165 Eh    ::
         ::    -> Gborn               -0.050564317088 Eh    ::
         ::    -> Gsasa                0.007317427806 Eh    ::
         ::    -> Ghb                 -0.022170324138 Eh    ::
         ::    -> Gshift               0.000364939255 Eh    ::
         :: add. restraining           0.000000000000 Eh    ::
         :: total charge              -0.000000000000 e     ::
         ::.................................................::
         :: atomisation energy         0.000000000000 Eh    ::
         :::::::::::::::::::::::::::::::::::::::::::::::::::::

      ----------------------------------------------------------- 
     |                   =====================                   |
     |                        A N C O P T                        |
     |                   =====================                   |
     |               Approximate Normal Coordinate               |
     |                Rational Function Optimizer                |
      ----------------------------------------------------------- 

          ...................................................
          :                      SETUP                      :
          :.................................................:
          :   optimization level         verytight          :
          :   max. optcycles                    10          :
          :   ANC micro-cycles                  10          :
          :   degrees of freedom               210          :
          :.................................................:
          :   RF solver                   davidson          :
          :   write xtbopt.log                true          :
          :   linear?                        false          :
          :   energy convergence         0.1000000E-06 Eh   :
          :   grad. convergence          0.2000000E-03 Eh/α :
          :   maxmium RF displ.          1.0000000          :
          :   Hlow (freq-cutoff)         0.1000000E-01      :
          :   Hmax (freq-cutoff)         5.0000000          :
          :   S6 in model hess.         20.0000000          :
          ...................................................

generating ANC from model Hessian ...
Using GFN-FF Lindh-Hessian
 Shifting diagonal of input Hessian by    9.4704276138994278E-003
 Lowest  eigenvalues of input Hessian
    0.000000    0.000000    0.000000    0.000000    0.000000    0.000000
    0.010000    0.010215    0.011048    0.015747    0.019981    0.038462
    0.040342    0.048205    0.052624    0.059435    0.073595    0.096680
 Highest eigenvalues
    3.786491    3.814666    3.845454    4.083062    4.159622    4.281749


........................................................................
.............................. CYCLE    1 ..............................
........................................................................
     iter. time                 ...        0 min,  0.002 sec
 * total energy  :   -13.4737300 Eh     change        0.0000000E+00 Eh
   gradient norm :     0.1979396 Eh/α   predicted     0.0000000E+00 (    NaN%)
   displ. norm   :     0.1112097 α      lambda       -0.1546284E-01
   maximum displ.:     0.0401801 α      in ANC's #51, #206, #49, ...

........................................................................
.............................. CYCLE    2 ..............................
........................................................................
     iter. time                 ...        0 min,  0.002 sec
 * total energy  :   -13.4841387 Eh     change       -0.1040869E-01 Eh
   gradient norm :     0.0758037 Eh/α   predicted    -0.7827055E-02 ( -24.80%)
   displ. norm   :     0.0843706 α      lambda       -0.3762311E-02
   maximum displ.:     0.0307783 α      in ANC's #3, #1, #206, ...

........................................................................
.............................. CYCLE    3 ..............................
........................................................................
     iter. time                 ...        0 min,  0.002 sec
 * total energy  :   -13.4862773 Eh     change       -0.2138533E-02 Eh
   gradient norm :     0.0237481 Eh/α   predicted    -0.1895097E-02 ( -11.38%)
   displ. norm   :     0.0561808 α      lambda       -0.4512129E-03
   maximum displ.:     0.0330443 α      in ANC's #3, #1, #9, ...

........................................................................
.............................. CYCLE    4 ..............................
........................................................................
     iter. time                 ...        0 min,  0.002 sec
 * total energy  :   -13.4866120 Eh     change       -0.3347210E-03 Eh
   gradient norm :     0.0143318 Eh/α   predicted    -0.2301954E-03 ( -31.23%)
   displ. norm   :     0.0750028 α      lambda       -0.2707027E-03
   maximum displ.:     0.0467327 α      in ANC's #1, #3, #9, ...

........................................................................
.............................. CYCLE    5 ..............................
........................................................................
     iter. time                 ...        0 min,  0.002 sec
 * total energy  :   -13.4867657 Eh     change       -0.1536871E-03 Eh
   gradient norm :     0.0048743 Eh/α   predicted    -0.1361257E-03 ( -11.43%)
   displ. norm   :     0.0341524 α      lambda       -0.2661380E-04
   maximum displ.:     0.0246983 α      in ANC's #1, #3, #2, ...

........................................................................
.............................. CYCLE    6 ..............................
........................................................................
     iter. time                 ...        0 min,  0.002 sec
 * total energy  :   -13.4867862 Eh     change       -0.2051953E-04 Eh
   gradient norm :     0.0031505 Eh/α   predicted    -0.1332730E-04 ( -35.05%)
   displ. norm   :     0.0581780 α      lambda       -0.3001423E-04
   maximum displ.:     0.0421794 α      in ANC's #1, #3, #2, ...

........................................................................
.............................. CYCLE    7 ..............................
........................................................................
     iter. time                 ...        0 min,  0.002 sec
 * total energy  :   -13.4868064 Eh     change       -0.2026343E-04 Eh
   gradient norm :     0.0025042 Eh/α   predicted    -0.1507046E-04 ( -25.63%)
   displ. norm   :     0.0440837 α      lambda       -0.1291229E-04
   maximum displ.:     0.0326248 α      in ANC's #1, #3, #2, ...

........................................................................
.............................. CYCLE    8 ..............................
........................................................................
     iter. time                 ...        0 min,  0.002 sec
 * total energy  :   -13.4868161 Eh     change       -0.9691026E-05 Eh
   gradient norm :     0.0024664 Eh/α   predicted    -0.6483272E-05 ( -33.10%)
   displ. norm   :     0.0503862 α      lambda       -0.1234755E-04
   maximum displ.:     0.0372062 α      in ANC's #1, #2, #3, ...

........................................................................
.............................. CYCLE    9 ..............................
........................................................................
     iter. time                 ...        0 min,  0.002 sec
 * total energy  :   -13.4868256 Eh     change       -0.9421130E-05 Eh
   gradient norm :     0.0023029 Eh/α   predicted    -0.6208481E-05 ( -34.10%)
   displ. norm   :     0.0609791 α      lambda       -0.1293673E-04
   maximum displ.:     0.0448880 α      in ANC's #1, #2, #4, ...

........................................................................
.............................. CYCLE   10 ..............................
........................................................................
     iter. time                 ...        0 min,  0.002 sec
 * total energy  :   -13.4868351 Eh     change       -0.9494939E-05 Eh
   gradient norm :     0.0022247 Eh/α   predicted    -0.6506610E-05 ( -31.47%)
   displ. norm   :     0.0611043 α      lambda       -0.1104496E-04
   maximum displ.:     0.0445042 α      in ANC's #1, #2, #4, ...

   *** FAILED TO CONVERGE GEOMETRY OPTIMIZATION IN 10 ITERATIONS ***


 ANCopt (total)                0 d,  0 h,  0 min,  0.026 sec
 optimizer setup                ...        0 min,  0.000 sec (  0.595%)
 model hessian                  ...        0 min,  0.001 sec (  2.726%)
 ANC generation                 ...        0 min,  0.003 sec ( 11.571%)
 coordinate transformation      ...        0 min,  0.000 sec (  0.710%)
 single point calculation       ...        0 min,  0.019 sec ( 73.076%)
 optimization log               ...        0 min,  0.002 sec (  6.194%)
 hessian update                 ...        0 min,  0.000 sec (  1.060%)
 rational function              ...        0 min,  0.001 sec (  2.603%)

================
 final structure:
================
ATOM      1  C   HIS A   2     -18.967 -18.708  17.488  1.00  0.00           C  
ATOM      2  O   HIS A   2     -19.184 -19.180  16.405  1.00  0.00           O  
ATOM      3  N   ASP A   3     -18.698 -17.418  17.723  1.00  0.00           N  
ATOM      4  CA  ASP A   3     -18.658 -16.446  16.633  1.00  0.00           C  
ATOM      5  C   ASP A   3     -17.366 -16.593  15.879  1.00  0.00           C  
ATOM      6  CB  ASP A   3     -18.890 -15.015  17.149  1.00  0.00           C  
ATOM      7  O   ASP A   3     -16.349 -16.097  16.299  1.00  0.00           O  
ATOM      8  CG  ASP A   3     -18.051 -14.697  18.371  1.00  0.00           C  
ATOM      9  OD1 ASP A   3     -18.356 -15.285  19.403  1.00  0.00           O  
ATOM     10  OD2 ASP A   3     -17.142 -13.887  18.239  1.00  0.00           O  
ATOM     11  H   ASP A   3     -18.559 -17.051  18.674  1.00  0.00           H  
ATOM     12  HA  ASP A   3     -19.483 -16.724  15.953  1.00  0.00           H  
ATOM     13  HB2 ASP A   3     -18.665 -14.289  16.361  1.00  0.00           H  
ATOM     14  HB3 ASP A   3     -19.943 -14.881  17.424  1.00  0.00           H  
ATOM     15  N   HIS A   4     -17.433 -17.335  14.747  1.00  0.00           N  
ATOM     16  CA  HIS A   4     -16.294 -17.481  13.867  1.00  0.00           C  
ATOM     17  C   HIS A   4     -15.947 -16.145  13.255  1.00  0.00           C  
ATOM     18  CB  HIS A   4     -16.535 -18.526  12.773  1.00  0.00           C  
ATOM     19  O   HIS A   4     -16.534 -15.748  12.268  1.00  0.00           O  
ATOM     20  CG  HIS A   4     -15.350 -18.791  11.903  1.00  0.00           C  
ATOM     21  CD2 HIS A   4     -14.198 -18.037  11.762  1.00  0.00           C  
ATOM     22  ND1 HIS A   4     -15.235 -19.816  11.005  1.00  0.00           N  
ATOM     23  CE1 HIS A   4     -14.027 -19.636  10.376  1.00  0.00           C  
ATOM     24  NE2 HIS A   4     -13.401 -18.572  10.823  1.00  0.00           N  
ATOM     25  H   HIS A   4     -18.266 -17.865  14.504  1.00  0.00           H  
ATOM     26  HA  HIS A   4     -15.446 -17.807  14.489  1.00  0.00           H  
ATOM     27  HB2 HIS A   4     -16.867 -19.464  13.228  1.00  0.00           H  
ATOM     28  HB3 HIS A   4     -17.358 -18.175  12.144  1.00  0.00           H  
ATOM     29  HD1 HIS A   4     -15.921 -20.548  10.823  1.00  0.00           H  
ATOM     30  HD2 HIS A   4     -13.967 -17.122  12.286  1.00  0.00           H  
ATOM     31  HE1 HIS A   4     -13.632 -20.279   9.599  1.00  0.00           H  
ATOM     32  N   HIS A   5     -14.937 -15.434  13.853  1.00  0.00           N  
ATOM     33  CA  HIS A   5     -14.363 -14.283  13.191  1.00  0.00           C  
ATOM     34  C   HIS A   5     -13.487 -14.753  12.061  1.00  0.00           C  
ATOM     35  CB  HIS A   5     -13.603 -13.368  14.154  1.00  0.00           C  
ATOM     36  O   HIS A   5     -12.317 -15.005  12.257  1.00  0.00           O  
ATOM     37  CG  HIS A   5     -14.510 -12.517  14.969  1.00  0.00           C  
ATOM     38  CD2 HIS A   5     -15.526 -12.915  15.817  1.00  0.00           C  
ATOM     39  ND1 HIS A   5     -14.525 -11.149  14.970  1.00  0.00           N  
ATOM     40  CE1 HIS A   5     -15.542 -10.786  15.816  1.00  0.00           C  
ATOM     41  NE2 HIS A   5     -16.147 -11.834  16.324  1.00  0.00           N  
ATOM     42  H   HIS A   5     -14.403 -15.818  14.633  1.00  0.00           H  
ATOM     43  HA  HIS A   5     -15.201 -13.716  12.760  1.00  0.00           H  
ATOM     44  HB2 HIS A   5     -12.962 -13.970  14.803  1.00  0.00           H  
ATOM     45  HB3 HIS A   5     -12.929 -12.725  13.581  1.00  0.00           H  
ATOM     46  HD1 HIS A   5     -13.912 -10.531  14.439  1.00  0.00           H  
ATOM     47  HD2 HIS A   5     -15.815 -13.935  16.044  1.00  0.00           H  
ATOM     48  HE1 HIS A   5     -15.824  -9.765  16.040  1.00  0.00           H  
ATOM     49  N   ALA A   6     -14.110 -14.905  10.847  1.00  0.00           N  
ATOM     50  CA  ALA A   6     -13.371 -15.291   9.658  1.00  0.00           C  
ATOM     51  C   ALA A   6     -12.374 -14.210   9.343  1.00  0.00           C  
ATOM     52  CB  ALA A   6     -14.281 -15.556   8.475  1.00  0.00           C  
ATOM     53  O   ALA A   6     -12.762 -13.110   9.016  1.00  0.00           O  
ATOM     54  H   ALA A   6     -15.130 -14.854  10.767  1.00  0.00           H  
ATOM     55  HA  ALA A   6     -12.819 -16.208   9.921  1.00  0.00           H  
ATOM     56  HB1 ALA A   6     -13.711 -15.878   7.601  1.00  0.00           H  
ATOM     57  HB2 ALA A   6     -15.020 -16.323   8.708  1.00  0.00           H  
ATOM     58  HB3 ALA A   6     -14.812 -14.644   8.204  1.00  0.00           H  
ATOM     59  N   ALA A   7     -11.053 -14.532   9.471  1.00  0.00           N  
ATOM     60  CA  ALA A   7     -10.008 -13.591   9.118  1.00  0.00           C  
ATOM     61  C   ALA A   7     -10.118 -13.250   7.650  1.00  0.00           C  
ATOM     62  CB  ALA A   7      -8.626 -14.128   9.439  1.00  0.00           C  
ATOM     63  O   ALA A   7     -10.021 -14.111   6.817  1.00  0.00           O  
ATOM     64  H   ALA A   7     -10.759 -15.475   9.719  1.00  0.00           H  
ATOM     65  HA  ALA A   7     -10.203 -12.683   9.709  1.00  0.00           H  
ATOM     66  HB1 ALA A   7      -8.424 -15.017   8.841  1.00  0.00           H  
ATOM     67  HB2 ALA A   7      -7.852 -13.394   9.212  1.00  0.00           H  
ATOM     68  HB3 ALA A   7      -8.541 -14.402  10.491  1.00  0.00           H  
ATOM     69  N   VAL A   8     -10.333 -11.905   7.290  1.00  0.00           N  
ATOM     70  CA  VAL A   8     -10.295 -11.468   5.980  1.00  0.00           C  
ATOM     71  H   VAL A   8     -10.239 -11.203   8.038  1.00  0.00           H  
ATOM     72  HA  VAL A   8     -10.966 -12.103   5.430  1.00  0.00           H  
END

 Bond Distances (Angstroems)
 ---------------------------
C1-O2=1.2012         C1-N3=1.3386         O2-C1=1.2012         N3-C1=1.3386         N3-C4=1.4605         N3-H11=1.0286        
C4-N3=1.4605         C4-C5=1.5033         C4-C6=1.5384         C4-H12=1.1054        C5-C4=1.5033         C5-O7=1.2069         
C5-N15=1.3553        C6-C4=1.5384         C6-C8=1.5157         C6-H13=1.0948        C6-H14=1.0965        O7-C5=1.2069         
C8-C6=1.5157         C8-O9=1.2258         C8-O10=1.2253        O9-C8=1.2258         O10-C8=1.2253        H11-N3=1.0286        
H12-C4=1.1054        H13-C6=1.0948        H14-C6=1.0965        N15-C5=1.3553        N15-C16=1.4463       N15-H25=1.0166       
C16-N15=1.4463       C16-C17=1.5106       C16-C18=1.5319       C16-H26=1.1007       C17-C16=1.5106       C17-O19=1.2140       
C17-N32=1.3725       C18-C16=1.5319       C18-C20=1.4937       C18-H27=1.0941       C18-H28=1.0943       O19-C17=1.2140       
C20-C18=1.4937       C20-C21=1.3837       C20-N22=1.3683       C21-C20=1.3837       C21-N24=1.3429       C21-H30=1.0793       
N22-C20=1.3683       N22-C23=1.3730       N22-H29=1.0193       C23-N22=1.3730       C23-N24=1.3130       C23-H31=1.0827       
N24-C21=1.3429       N24-C23=1.3130       H25-N15=1.0166       H26-C16=1.1007       H27-C18=1.0941       H28-C18=1.0943       
H29-N22=1.0193       H30-C21=1.0793       H31-C23=1.0827       N32-C17=1.3725       N32-C33=1.4476       N32-H42=1.0204       
C33-N32=1.4476       C33-C34=1.5047       C33-C35=1.5304       C33-H43=1.1000       C34-C33=1.5047       C34-O36=1.2133       
C34-N49=1.3726       C35-C33=1.5304       C35-C37=1.4866       C35-H44=1.0934       C35-H45=1.0943       O36-C34=1.2133       
C37-C35=1.4866       C37-C38=1.3826       C37-N39=1.3677       C38-C37=1.3826       C38-N41=1.3451       C38-H47=1.0839       
N39-C37=1.3677       N39-C40=1.3718       N39-H46=1.0193       C40-N39=1.3718       C40-N41=1.3123       C40-H48=1.0828       
N41-C38=1.3451       N41-C40=1.3123       H42-N32=1.0204       H43-C33=1.1000       H44-C35=1.0934       H45-C35=1.0943       
H46-N39=1.0193       H47-C38=1.0839       H48-C40=1.0828       N49-C34=1.3726       N49-C50=1.4521       N49-H54=1.0246       
C50-N49=1.4521       C50-C51=1.5040       C50-C52=1.5163       C50-H55=1.1022       C51-C50=1.5040       C51-O53=1.2113       
C51-N59=1.3660       C52-C50=1.5163       C52-H56=1.0910       C52-H57=1.0904       C52-H58=1.0899       O53-C51=1.2113       
H54-N49=1.0246       H55-C50=1.1022       H56-C52=1.0910       H57-C52=1.0904       H58-C52=1.0899       N59-C51=1.3660       
N59-C60=1.4498       N59-H64=1.0181       C60-N59=1.4498       C60-C61=1.5110       C60-C62=1.5178       C60-H65=1.1011       
C61-C60=1.5110       C61-O63=1.2017       C61-N69=1.4094       C62-C60=1.5178       C62-H66=1.0902       C62-H67=1.0905       
C62-H68=1.0898       O63-C61=1.2017       H64-N59=1.0181       H65-C60=1.1011       H66-C62=1.0902       H67-C62=1.0905       
H68-C62=1.0898       N69-C61=1.4094       N69-C70=1.3809       N69-H71=1.0301       C70-N69=1.3809       C70-H72=1.0751       
H71-N69=1.0301       H72-C70=1.0751       
 C  H  Rav=1.0919 sigma=0.0075  Rmin=1.0751  Rmax=1.1054    22
 C  C  Rav=1.4954 sigma=0.0460  Rmin=1.3826  Rmax=1.5384    15
 N  H  Rav=1.0221 sigma=0.0047  Rmin=1.0166  Rmax=1.0301     8
 N  C  Rav=1.3823 sigma=0.0453  Rmin=1.3123  Rmax=1.4605    20
 O  C  Rav=1.2124 sigma=0.0088  Rmin=1.2012  Rmax=1.2258     8

 selected bond angles (degree)
 --------------------
N3-C1-O2=124.98                C4-N3-C1=121.08                H11-N3-C1=122.17               H11-N3-C4=116.67               
C5-C4-N3=109.43                C6-C4-N3=111.41                C6-C4-C5=112.89                H12-C4-N3=105.71               
H12-C4-C5=107.97               H12-C4-C6=109.13               O7-C5-C4=120.64                N15-C5-C4=115.48               
N15-C5-O7=123.86               C8-C6-C4=112.42                H13-C6-C4=110.11               H13-C6-C8=109.12               
H14-C6-C4=110.05               H14-C6-C8=107.70               H14-C6-H13=107.27              O9-C8-C6=116.12                
O10-C8-C6=117.55               O10-C8-O9=126.33               

 selected dihedral angles (degree)
 ---------------------------------
C4-N3-C1-O2=  0.60            H11-N3-C1-O2=177.25           C5-C4-N3-C1=282.93            C5-C4-N3-H11=106.12           
C6-C4-N3-C1=157.40            C6-C4-N3-H11=340.58           H12-C4-N3-C1= 38.98           H12-C4-N3-H11=222.16          
O7-C5-C4-N3=279.43            O7-C5-C4-C6= 44.11            O7-C5-C4-H12=164.83           N15-C5-C4-N3= 97.67           
N15-C5-C4-C6=222.35           N15-C5-C4-H12=343.08          C8-C6-C4-N3= 47.11            C8-C6-C4-C5=283.51            
C8-C6-C4-H12=163.45           H13-C6-C4-N3=169.01           H13-C6-C4-C5= 45.42           H13-C6-C4-H12=285.36          
H14-C6-C4-N3=287.06           H14-C6-C4-C5=163.46           H14-C6-C4-H12= 43.40          O9-C8-C6-C4=290.74            
O9-C8-C6-H13=168.28           O9-C8-C6-H14= 52.14           O10-C8-C6-C4=110.74           O10-C8-C6-H13=348.28          
O10-C8-C6-H14=232.14          
           -------------------------------------------------
          |                Final Singlepoint                |
           -------------------------------------------------
         :::::::::::::::::::::::::::::::::::::::::::::::::::::
         ::                     SUMMARY                     ::
         :::::::::::::::::::::::::::::::::::::::::::::::::::::
         :: total energy             -13.486842781647 Eh    ::
         :: total w/o Gsolv          -13.421813258268 Eh    ::
         :: total w/o Gsasa/hb       -13.472436734039 Eh    ::
         :: gradient norm              0.001942925419 Eh/a0 ::
         ::.................................................::
         :: bond energy              -13.737566512464 Eh    ::
         :: angle energy               0.057275647490 Eh    ::
         :: torsion energy             0.020665640850 Eh    ::
         :: repulsion energy           0.919619192546 Eh    ::
         :: electrostat energy        -0.591880393970 Eh    ::
         :: dispersion energy         -0.070428040002 Eh    ::
         :: HB energy                 -0.007769250807 Eh    ::
         :: XB energy                  0.000000000000 Eh    ::
         :: bonded atm energy         -0.017908390434 Eh    ::
         :: external energy            0.000000000000 Eh    ::
         :: -> Gsolv                  -0.065029523379 Eh    ::
         ::    -> Gborn               -0.050623475771 Eh    ::
         ::    -> Gsasa                0.007365084702 Eh    ::
         ::    -> Ghb                 -0.022136071565 Eh    ::
         ::    -> Gshift               0.000364939255 Eh    ::
         :: add. restraining           0.006178848523 Eh    ::
         :: total charge               0.000000000000 e     ::
         ::.................................................::
         :: atomisation energy         0.000000000000 Eh    ::
         :::::::::::::::::::::::::::::::::::::::::::::::::::::

           -------------------------------------------------
          |                Property Printout                |
           -------------------------------------------------
           -------------------------------------------------
          |                Geometry Summary                 |
           -------------------------------------------------

      molecular mass/u    :      586.5581556
   center of mass at/Å    :      -14.7387723     -15.2739578      12.9277991
  moments of inertia/u·Å² :        0.3792261E+04   0.1199904E+05   0.1485964E+05
rotational constants/cm⁻¹ :        0.4445273E-02   0.1404915E-02   0.1134458E-02

 * 64 selected distances

     #   Z          #   Z                                           value/Å
     1   6  C       3   7  N                                      1.3386051
     3   7  N       4   6  C                                      1.4604728
     4   6  C       6   6  C                                      1.5384211 (max)
     5   6  C       7   8  O                                      1.2068583
     8   6  C       9   8  O                                      1.2257795
     8   6  C      10   8  O                                      1.2253146
     3   7  N      11   1  H                                      1.0286448
     4   6  C      12   1  H                                      1.1053657
     6   6  C      13   1  H                                      1.0948268
     6   6  C      14   1  H                                      1.0965219
     5   6  C      15   7  N                                      1.3553381
    15   7  N      16   6  C                                      1.4463300
    16   6  C      18   6  C                                      1.5319246
    17   6  C      19   8  O                                      1.2140052
    18   6  C      20   6  C                                      1.4937226
    20   6  C      21   6  C                                      1.3836660
    20   6  C      22   7  N                                      1.3683413
    22   7  N      23   6  C                                      1.3729956
    21   6  C      24   7  N                                      1.3429068
    23   6  C      24   7  N                                      1.3130335
    15   7  N      25   1  H                                      1.0166148 (min)
    16   6  C      26   1  H                                      1.1006943
    18   6  C      27   1  H                                      1.0941140
    18   6  C      28   1  H                                      1.0942912
    22   7  N      29   1  H                                      1.0193369
    21   6  C      30   1  H                                      1.0793380
    23   6  C      31   1  H                                      1.0827294
    17   6  C      32   7  N                                      1.3724796
    32   7  N      33   6  C                                      1.4475792
    33   6  C      35   6  C                                      1.5303769
    34   6  C      36   8  O                                      1.2132515
    35   6  C      37   6  C                                      1.4865602
    37   6  C      38   6  C                                      1.3826438
    37   6  C      39   7  N                                      1.3677072
    39   7  N      40   6  C                                      1.3718227
    38   6  C      41   7  N                                      1.3450799
    40   6  C      41   7  N                                      1.3122621
    32   7  N      42   1  H                                      1.0204255
    33   6  C      43   1  H                                      1.1000483
    35   6  C      44   1  H                                      1.0934071
    35   6  C      45   1  H                                      1.0942578
    39   7  N      46   1  H                                      1.0193141
    38   6  C      47   1  H                                      1.0838622
    40   6  C      48   1  H                                      1.0828305
    34   6  C      49   7  N                                      1.3726078
    49   7  N      50   6  C                                      1.4520799
    50   6  C      52   6  C                                      1.5163367
    51   6  C      53   8  O                                      1.2113121
    49   7  N      54   1  H                                      1.0245792
    50   6  C      55   1  H                                      1.1021905
    52   6  C      56   1  H                                      1.0910136
    52   6  C      57   1  H                                      1.0904388
    52   6  C      58   1  H                                      1.0899244
    51   6  C      59   7  N                                      1.3659623
    59   7  N      60   6  C                                      1.4498183
    60   6  C      62   6  C                                      1.5178145
    61   6  C      63   8  O                                      1.2016695
    59   7  N      64   1  H                                      1.0181380
    60   6  C      65   1  H                                      1.1011047
    62   6  C      66   1  H                                      1.0901800
    62   6  C      67   1  H                                      1.0904581
    62   6  C      68   1  H                                      1.0897995
    61   6  C      69   7  N                                      1.4093528
    69   7  N      71   1  H                                      1.0300694

 * 5 distinct bonds (by element types)

   Z      Z             #   av. dist./Å        max./Å        min./Å
   1 H    6 C          21     1.0927332     1.1053657     1.0793380
   6 C    6 C           9     1.4868296     1.5384211     1.3826438
   1 H    7 N           8     1.0221403     1.0300694     1.0166148
   6 C    7 N          19     1.3823566     1.4604728     1.3122621
   6 C    8 O           7     1.2140272     1.2257795     1.2016695


optimized geometry written to: xtbopt.pdb


           -------------------------------------------------
          | TOTAL ENERGY              -13.486842781647 Eh   |
          | GRADIENT NORM               0.001942925419 Eh/α |
           -------------------------------------------------
########################################################################
[WARNING] Runtime exception occurred
-1- gfnff_setup: Could not read topology file.
########################################################################

------------------------------------------------------------------------
 unit  open   action     filename
   10 false : read       xtb_settings.inp
   10 false : read       substructure_6.pdb
   10 false : read       xtb_settings.inp
   10 false : written    gfnff_topo
   10 false : written    gfnff_adjacency
   10 false : written    gfnff_charges
   10 false : deleted    .xtboptok
   10 false : replaced   xtbopt.log
   11 false : created    .xtboptok
   11 false : replaced   gfnff_charges
   10 false : replaced   xtbopt.pdb

------------------------------------------------------------------------
 * finished run on 2025/05/27 at 09:37:32.826     
------------------------------------------------------------------------
 total:
 * wall-time:     0 d,  0 h,  0 min,  0.037 sec
 *  cpu-time:     0 d,  0 h,  0 min,  0.037 sec
 * ratio c/w:     0.999 speedup
 SCF:
 * wall-time:     0 d,  0 h,  0 min,  0.002 sec
 *  cpu-time:     0 d,  0 h,  0 min,  0.002 sec
 * ratio c/w:     1.000 speedup
 ANC optimizer:
 * wall-time:     0 d,  0 h,  0 min,  0.029 sec
 *  cpu-time:     0 d,  0 h,  0 min,  0.028 sec
 * ratio c/w:     0.999 speedup

