72
 energy: -13.475702662479 gnorm: 0.193036621385 xtb: 6.6.1 (8d0f1dd)
 C         -18.85100000000000      -18.75600000000000       17.49500000000000
 O         -19.04799999999999      -19.18700000000000       16.37600000000000
 N         -18.53600000000000      -17.43400000000000       17.70600000000000
 C         -18.65700000000000      -16.46300000000000       16.63300000000000
 C         -17.41900000000000      -16.47100000000000       15.78700000000000
 C         -19.00500000000000      -15.06100000000000       17.17599999999999
 O         -16.48200000000000      -15.76100000000000       16.07100000000000
 C         -18.12200000000000      -14.64600000000000       18.33500000000000
 O         -18.25200000000000      -15.28600000000000       19.37200000000000
 O         -17.35800000000000      -13.70400000000000       18.15200000000000
 H         -18.46600000000000      -17.05900000000000       18.66100000000000
 H         -19.49200000000000      -16.81700000000000       16.00100000000000
 H         -18.91500000000000      -14.31700000000000       16.37800000000000
 H         -20.04400000000000      -15.04000000000000       17.52300000000000
 N         -17.44500000000000      -17.32600000000000       14.72700000000000
 C         -16.29600000000000      -17.48600000000000       13.86900000000000
 C         -15.90800000000000      -16.18800000000000       13.22200000000000
 C         -16.49200000000000      -18.59600000000000       12.83100000000000
 O         -16.44300000000000      -15.85000000000000       12.18700000000000
 C         -15.24500000000000      -18.98600000000000       12.11700000000000
 C         -14.36100000000000      -18.16000000000000       11.45200000000000
 N         -14.75600000000000      -20.25500000000000       11.96800000000000
 C         -13.60600000000000      -20.13100000000000       11.22700000000000
 N         -13.36300000000000      -18.88000000000000       10.91300000000000
 H         -18.14300000000000      -18.07500000000000       14.68700000000000
 H         -15.45600000000000      -17.79500000000000       14.53600000000000
 H         -16.91800000000000      -19.48100000000000       13.31400000000000
 H         -17.23400000000000      -18.25200000000000       12.10400000000000
 H         -15.16800000000000      -21.11500000000000       12.33000000000000
 H         -14.43700000000000      -17.08600000000000       11.37800000000000
 H         -12.97100000000000      -20.95700000000000       10.93000000000000
 N         -14.94600000000000      -15.43700000000000       13.84800000000000
 C         -14.36800000000000      -14.28800000000000       13.19200000000000
 C         -13.49300000000000      -14.73800000000000       12.05500000000000
 C         -13.60600000000000      -13.37200000000000       14.15900000000000
 O         -12.31400000000000      -14.95600000000000       12.23800000000000
 C         -14.49800000000000      -12.46200000000000       14.92600000000000
 C         -15.58500000000000      -12.78900000000000       15.71600000000000
 N         -14.41300000000000      -11.09700000000000       14.94400000000000
 C         -15.44600000000000      -10.66600000000000       15.73800000000000
 N         -16.15300000000000      -11.67100000000000       16.20000000000000
 H         -14.44700000000000      -15.78500000000000       14.66600000000000
 H         -15.20700000000000      -13.71300000000000       12.76500000000000
 H         -13.00500000000000      -13.97800000000000       14.84200000000000
 H         -12.89300000000000      -12.76900000000000       13.58900000000000
 H         -13.72500000000000      -10.52100000000000       14.45900000000000
 H         -15.95900000000000      -13.78600000000000       15.91700000000000
 H         -15.66400000000000       -9.62900000000000       15.95900000000000
 N         -14.12100000000000      -14.89900000000000       10.84400000000000
 C         -13.37200000000000      -15.28800000000000        9.66200000000000
 C         -12.37400000000000      -14.21100000000000        9.34200000000000
 C         -14.27900000000000      -15.55700000000000        8.47200000000000
 O         -12.76400000000000      -13.10900000000000        9.01900000000000
 H         -15.14600000000000      -14.89000000000000       10.77500000000000
 H         -12.82600000000000      -16.20600000000000        9.92800000000000
 H         -13.70500000000000      -15.87800000000000        7.60200000000000
 H         -15.01900000000000      -16.32500000000000        8.70000000000000
 H         -14.81100000000000      -14.64600000000000        8.19800000000000
 N         -11.04600000000000      -14.54300000000000        9.45600000000000
 C         -10.01200000000000      -13.58800000000000        9.12300000000000
 C         -10.13100000000000      -13.23000000000000        7.65700000000000
 C          -8.62100000000000      -14.10000000000000        9.44400000000000
 O         -10.00000000000000      -14.10800000000000        6.82900000000000
 H         -10.74400000000000      -15.48600000000000        9.70500000000000
 H         -10.22500000000000      -12.68500000000000        9.71700000000000
 H          -8.40500000000000      -14.98600000000000        8.84800000000000
 H          -7.86000000000000      -13.35400000000000        9.21400000000000
 H          -8.53200000000000      -14.37100000000000       10.49600000000000
 N         -10.38200000000000      -11.91500000000000        7.33400000000000
 C         -10.28900000000000      -11.46200000000000        5.95800000000000
 H         -10.31000000000000      -11.18500000000000        8.04200000000000
 H         -10.98100000000000      -12.10500000000000        5.38700000000000
72
 energy: -13.485151253264 gnorm: 0.069298600557 xtb: 6.6.1 (8d0f1dd)
 C         -18.85370373801020      -18.74611954120805       17.49163441653249
 O         -19.04385966003109      -19.18959952454124       16.38154905532694
 N         -18.53821734954854      -17.44036741978733       17.70481394766366
 C         -18.65892442548405      -16.46137593777287       16.63415058337451
 C         -17.41869829738836      -16.47046559348518       15.78734908449830
 C         -19.00434245661359      -15.06068069471403       17.17658199695290
 O         -16.48136820537718      -15.76116624704004       16.07136371005926
 C         -18.12097214488105      -14.64599292119663       18.33546452919640
 O         -18.25102814055246      -15.28631484337291       19.37228880537008
 O         -17.35682176773623      -13.70474143385036       18.15274226207220
 H         -18.46863446513723      -17.06304054633247       18.65945351997548
 H         -19.49282767820677      -16.81430452825977       16.00001296151677
 H         -18.91401517577260      -14.31649849728695       16.37848093661290
 H         -20.04347371638353      -15.03927160908593       17.52333183892521
 N         -17.44463189708742      -17.32682281201877       14.72743675916589
 C         -16.29049282271294      -17.49057055920935       13.87195632277881
 C         -15.90747210519363      -16.18807739167883       13.22260862923250
 C         -16.49236912245720      -18.59642773120767       12.83089071363241
 O         -16.44281447931612      -15.85067058735713       12.18726043490642
 C         -15.24503887959464      -18.98624975521545       12.11702492238595
 C         -14.36101427916760      -18.16002913634740       11.45208385711456
 N         -14.75620160124015      -20.25523957899175       11.96799782883151
 C         -13.60615761523087      -20.13134308309209       11.22710024228590
 N         -13.36304885164544      -18.88016929069980       10.91319536019026
 H         -18.14484664822941      -18.07416666725513       14.68503863379379
 H         -15.45718775477788      -17.79505226028120       14.53524544642458
 H         -16.91841696753993      -19.48105272969048       13.31371763784948
 H         -17.23425874268059      -18.25175339436618       12.10400920845028
 H         -15.16820505989621      -21.11513181930959       12.32991425174085
 H         -14.43699376729555      -17.08618535332451       11.37816897187007
 H         -12.97108504128871      -20.95722098589235       10.93006766118845
 N         -14.94563064633145      -15.43594804832929       13.84819198534274
 C         -14.36832412369526      -14.28549002397531       13.19217247086020
 C         -13.49325521096303      -14.73793608999361       12.05462805600134
 C         -13.60598399712545      -13.37117625726446       14.15934555883790
 O         -12.31397309358004      -14.95662049109510       12.23781908307783
 C         -14.49805696498464      -12.46158639622469       14.92625419508503
 C         -15.58485559584846      -12.78890787074340       15.71591605009421
 N         -14.41305946918908      -11.09671943557409       14.94417579564943
 C         -15.44602385545351      -10.66593264220507       15.73798160945260
 N         -16.15294957805989      -11.67078339811719       16.19987810650376
 H         -14.44619968648635      -15.78379356148469       14.66662735393831
 H         -15.20656046503577      -13.71256196835179       12.76567884858445
 H         -13.00475314606933      -13.97759877870834       14.84200755847661
 H         -12.89289414628874      -12.76852068711686       13.58892105173378
 H         -13.72529824489826      -10.52087920267952       14.45940167287037
 H         -15.95862266868673      -13.78573637786312       15.91679985087014
 H         -15.66418083625539       -9.62878580764533       15.95905843889912
 N         -14.12127086084787      -14.90027390580186       10.84371888305296
 C         -13.37352115479481      -15.28975692389487        9.66078168249564
 C         -12.37396117542529      -14.21191156395540        9.34265658192993
 C         -14.27954773215446      -15.55779094395169        8.47157668743544
 O         -12.76384066952510      -13.11009043470952        9.01884301134463
 H         -15.14635270750945      -14.88959350024573       10.77462079968615
 H         -12.82597015287489      -16.20671726937728        9.92769342481465
 H         -13.70546174754100      -15.87868880538843        7.60170467583624
 H         -15.01948401591600      -16.32544043604383        8.69976368050136
 H         -14.81132834310088      -14.64676461587738        8.19774454662948
 N         -11.04604753488802      -14.54342129102113        9.45624369194440
 C         -10.01286931143808      -13.58736414987245        9.12039219277714
 C         -10.13263894870382      -13.23837381585806        7.65052385380335
 C          -8.62137975975816      -14.09949522486357        9.44452101805463
 O          -9.99708576709854      -14.11204746419890        6.83081477854280
 H         -10.74369680933742      -15.48611100344307        9.70580056937674
 H         -10.22623549389332      -12.68489852203521        9.71528763737317
 H          -8.40448255909796      -14.98599556555529        8.84945109595955
 H          -7.86015311830766      -13.35361315584340        9.21480501082976
 H          -8.53265212740281      -14.36935785751738       10.49687614106737
 N         -10.38946487171271      -11.91007296500394        7.30981130631593
 C         -10.29920804368109      -11.46243721130043        5.97985528774373
 H         -10.31355725906124      -11.18854870064891        8.03232668550055
 H         -10.95804525050078      -12.09115516234887        5.39939454078777
72
 energy: -13.486650061766 gnorm: 0.017919948933 xtb: 6.6.1 (8d0f1dd)
 C         -18.85927717526558      -18.73838760460807       17.48829944025659
 O         -19.03942109343474      -19.19411531492074       16.38442603270990
 N         -18.53863866415408      -17.44469136782224       17.70489942181324
 C         -18.65947733303632      -16.45994643909724       16.63450688767646
 C         -17.41841683485608      -16.47011668865963       15.78741731870799
 C         -19.00388597702698      -15.06058258553292       17.17680439704781
 O         -16.48145591543480      -15.76072837655003       16.07110264208755
 C         -18.12040626263434      -14.64602524373745       18.33573241073861
 O         -18.25068131430627      -15.28663936721169       19.37244388830526
 O         -17.35607884493224      -13.70520654167756       18.15329130432299
 H         -18.46952220427071      -17.06335014251914       18.65882274959510
 H         -19.49298688226198      -16.81337813793076       15.99961864495314
 H         -18.91356474412846      -14.31616174588360       16.37873644262137
 H         -20.04321405712304      -15.03891701754881       17.52343683978059
 N         -17.44482807840387      -17.32678287146527       14.72750170063728
 C         -16.28660502980667      -17.49322047448405       13.87427287540279
 C         -15.90761154073319      -16.18797958955347       13.22258981873332
 C         -16.49269385392295      -18.59622047849260       12.83082340313107
 O         -16.44280573562369      -15.85069440097688       12.18728348587859
 C         -15.24505136598748      -18.98622281558852       12.11703128444651
 C         -14.36100041125925      -18.15995817129894       11.45211279837950
 N         -14.75632437481308      -20.25524331416999       11.96799430723013
 C         -13.60624469996992      -20.13145049147801       11.22713804723830
 N         -13.36305900800477      -18.88020714959807       10.91329059173166
 H         -18.14610804168276      -18.07320164220490       14.68391412517512
 H         -15.45704418201533      -17.79481377063580       14.53545701548177
 H         -16.91869633013849      -19.48081022172623       13.31359483692213
 H         -17.23437177790919      -18.25153772571907       12.10399770941427
 H         -15.16831673842696      -21.11511669105158       12.32988021454791
 H         -14.43696797553913      -17.08619846071865       11.37823778537283
 H         -12.97107705498097      -20.95724487924909       10.93011649017290
 N         -14.94584213663775      -15.43566959580180       13.84806359034674
 C         -14.36870798760175      -14.28437409488678       13.19207753531545
 C         -13.49335906071232      -14.73815320702390       12.05444944275557
 C         -13.60609743806236      -13.37115240930249       14.15942930890202
 O         -12.31395227217304      -14.95698764532086       12.23781447280107
 C         -14.49814677743747      -12.46164739290671       14.92637502743056
 C         -15.58482559592423      -12.78917462882840       15.71591253557150
 N         -14.41306486004831      -11.09676372010116       14.94414426442349
 C         -15.44601089918374      -10.66607771618479       15.73789158605031
 N         -16.15291739574743      -11.67081391995956       16.19982223495487
 H         -14.44637774714868      -15.78360229674201       14.66675458821101
 H         -15.20653373140772      -13.71285210130059       12.76570083006460
 H         -13.00451180314760      -13.97763999194763       14.84185371492300
 H         -12.89293857600826      -12.76879022248572       13.58859958625511
 H         -13.72545991310470      -10.52100892831082       14.45944734109852
 H         -15.95841830213677      -13.78590622809391       15.91680494001654
 H         -15.66427292397758       -9.62883409658840       15.95903646108695
 N         -14.12110203718084      -14.90096527933513       10.84366804991889
 C         -13.37426386259568      -15.29042857402063        9.65991694969063
 C         -12.37358291255609      -14.21216754042882        9.34303701388514
 C         -14.27957063675022      -15.55801149704986        8.47148958194681
 O         -12.76345847654328      -13.11038821734880        9.01899962068006
 H         -15.14629081373508      -14.88944366512960       10.77462373670065
 H         -12.82580721245609      -16.20674841673826        9.92777311895969
 H         -13.70542662579173      -15.87892000488823        7.60167345976737
 H         -15.01948337901524      -16.32555733563117        8.69980946312605
 H         -14.81134813225767      -14.64705970459987        8.19765387942510
 N         -11.04582158184606      -14.54339426726904        9.45681443203746
 C         -10.01286347025131      -13.58674299331061        9.12045155666563
 C         -10.13177705412584      -13.24359302611951        7.65011584295527
 C          -8.62128824409758      -14.09921755184807        9.44504005795453
 O          -9.99601653299876      -14.11244362533725        6.83182413295675
 H         -10.74358090810334      -15.48613628113388        9.70607048369864
 H         -10.22625000629387      -12.68480573198327        9.71543466793684
 H          -8.40428269086108      -14.98572317843788        8.84991907125715
 H          -7.86020456173715      -13.35311115786938        9.21533075199025
 H          -8.53259622847185      -14.36901580849200       10.49723146054000
 N         -10.39633769922007      -11.90626597031011        7.29553394407244
 C         -10.30620928442357      -11.46089500893766        5.98711995337650
 H         -10.31054963037601      -11.19287949207435        8.03196842745921
 H         -10.95061709576841      -12.08648775381005        5.40254797227885
72
 energy: -13.486807876259 gnorm: 0.009722630509 xtb: 6.6.1 (8d0f1dd)
 C         -18.86282151850187      -18.73608117288266       17.48643803793086
 O         -19.03807502901264      -19.19617093166370       16.38448730033104
 N         -18.53793122593220      -17.44571082313643       17.70557737739105
 C         -18.65931567440433      -16.45945985237915       16.63462967483414
 C         -17.41832948843517      -16.47017379021528       15.78744905985022
 C         -19.00382354063409      -15.06060181337498       17.17685988640259
 O         -16.48168402191477      -15.76048896528522       16.07097364539315
 C         -18.12035793775554      -14.64597476143054       18.33577263047941
 O         -18.25070601954345      -15.28664726330577       19.37247199639879
 O         -17.35599822325190      -13.70520916921000       18.15336844587265
 H         -18.46867408121214      -17.06288527090263       18.65916827089403
 H         -19.49283638810435      -16.81345514150829       15.99978825269701
 H         -18.91358480852768      -14.31614354530021       16.37875720444766
 H         -20.04319680835264      -15.03887160958993       17.52346641800199
 N         -17.44513990730287      -17.32655664646776       14.72733869266557
 C         -16.28577454604191      -17.49357335465138       13.87487449476508
 C         -15.90792433626684      -16.18795396899481       13.22237168868577
 C         -16.49273785823194      -18.59603644546963       12.83085608964287
 O         -16.44286108569651      -15.85052775805942       12.18722913602479
 C         -15.24499953278657      -18.98616535813051       12.11707933097691
 C         -14.36096651115842      -18.15990702964290       11.45214598976978
 N         -14.75628281028614      -20.25518181685886       11.96803420049336
 C         -13.60622190370582      -20.13140885612679       11.22715104435071
 N         -13.36303217598764      -18.88016402726827       10.91331297727855
 H         -18.14632895159625      -18.07295114942531       14.68375747775728
 H         -15.45668088061704      -17.79474941541966       14.53575611926369
 H         -16.91865302391733      -19.48072705140742       13.31364101670082
 H         -17.23431446622791      -18.25152792158812       12.10403234613990
 H         -15.16823779888702      -21.11507314167440       12.32993366285864
 H         -14.43694833740584      -17.08615348256377       11.37827146749809
 H         -12.97100351164016      -20.95717759861715       10.93015892670183
 N         -14.94611498603832      -15.43585152287429       13.84798781194258
 C         -14.36882292672666      -14.28435289313090       13.19203680293404
 C         -13.49336708052141      -14.73830230917220       12.05449473433923
 C         -13.60613581383802      -13.37136718620116       14.15941717777181
 O         -12.31395350922122      -14.95705788247482       12.23787617234175
 C         -14.49815265093229      -12.46177547994619       14.92636415840317
 C         -15.58480542003620      -12.78933260495570       15.71589979329752
 N         -14.41302566589233      -11.09686186240507       14.94395976330085
 C         -15.44598323723478      -10.66617708718218       15.73767850783648
 N         -16.15287967870750      -11.67085133047856       16.19970756971747
 H         -14.44681224956966      -15.78390029989544       14.66673602754175
 H         -15.20666536184239      -13.71313643096116       12.76556792453948
 H         -13.00434832504572      -13.97773752954817       14.84177394311526
 H         -12.89297808725681      -12.76912822804969       13.58840625915268
 H         -13.72546323437895      -10.52111703583056       14.45922646483301
 H         -15.95831437380351      -13.78605397439473       15.91688454645731
 H         -15.66430316956478       -9.62892662033419       15.95880243234491
 N         -14.12096527919420      -14.90101729312299       10.84375877589308
 C         -13.37436405320481      -15.29038244978945        9.65976774020891
 C         -12.37346488760156      -14.21209520219969        9.34309476493090
 C         -14.27948347646619      -15.55793313527917        8.47157220887392
 O         -12.76342293468695      -13.11032355668726        9.01906095245211
 H         -15.14619353448414      -14.88936881612613       10.77473352294646
 H         -12.82574884994666      -16.20662340143531        9.92788620620019
 H         -13.70532747313515      -15.87888003091915        7.60174559794933
 H         -15.01941693323601      -16.32550954674765        8.69986898592010
 H         -14.81129861687735      -14.64700506307263        8.19770954496212
 N         -11.04574526635064      -14.54324887636060        9.45695658601496
 C         -10.01262898539763      -13.58637775429836        9.12111886189071
 C         -10.13038399072171      -13.24404728038879        7.65231583424646
 C          -8.62117908697576      -14.09926366987304        9.44509149157457
 O          -9.99659284843694      -14.11073819371226        6.83159923896795
 H         -10.74364043856702      -15.48613221174179        9.70590652583504
 H         -10.22610819881817      -12.68464778839576        9.71580615687188
 H          -8.40436143607859      -14.98569942086119        8.84971681238855
 H          -7.86017972249570      -13.35309623224664        9.21524184588920
 H          -8.53248857766561      -14.36926848913487       10.49714893331230
 N         -10.39918448440841      -11.90510185612565        7.29366455425339
 C         -10.30752999774114      -11.46025670738870        5.98593276091876
 H         -10.30758864255037      -11.19448671288924        8.03380948973883
 H         -10.95113411100972      -12.08785690081777        5.40151965539284
72
 energy: -13.486866423890 gnorm: 0.002051171162 xtb: 6.6.1 (8d0f1dd)
 C         -18.86652346243341      -18.73424945911975       17.48446813940305
 O         -19.03709748671364      -19.19793654159793       16.38425856242671
 N         -18.53686794557857      -17.44621007944411       17.70649521560135
 C         -18.65910535590347      -16.45911254023768       16.63476527338174
 C         -17.41827948707426      -16.47031740251144       15.78745915851228
 C         -19.00383920950149      -15.06064486874495       17.17689096787151
 O         -16.48190957731265      -15.76030804858417       16.07090222535863
 C         -18.12039829457964      -14.64590362753760       18.33577051970491
 O         -18.25078643457319      -15.28659246105599       19.37247171820689
 O         -17.35605216107276      -13.70512268611360       18.15335458473483
 H         -18.46731062240034      -17.06253612757227       18.65979409335504
 H         -19.49265329413838      -16.81360316714602       16.00001481560017
 H         -18.91366836992154      -14.31616723310322       16.37874543369989
 H         -20.04320728524620      -15.03887343827134       17.52349504118755
 N         -17.44551783595197      -17.32629174183097       14.72707313422498
 C         -16.28545232943842      -17.49355511857821       13.87518903039499
 C         -15.90827675454453      -16.18797359509206       13.22212199963608
 C         -16.49272079631845      -18.59589440822966       12.83091498823215
 O         -16.44292529653324      -15.85033010435717       12.18717549357719
 C         -15.24493037923875      -18.98611431181394       12.11714575951151
 C         -14.36092578366516      -18.15985510836476       11.45219189573017
 N         -14.75621109877635      -20.25511320324527       11.96808637642552
 C         -13.60618500528306      -20.13134405888796       11.22715955635763
 N         -13.36299509606126      -18.88010139398323       10.91333498762531
 H         -18.14635063967316      -18.07287330583795       14.68377757471910
 H         -15.45639421617391      -17.79471908792834       14.53599211905219
 H         -16.91854086634092      -19.48068791386587       13.31372553644194
 H         -17.23423231139942      -18.25154578204958       12.10408084986521
 H         -15.16811481176045      -21.11502503357040       12.33001384782708
 H         -14.43692507525219      -17.08609702148201       11.37831149161687
 H         -12.97090810969732      -20.95709395974820       10.93022093199264
 N         -14.94637524597636      -15.43613809501534       13.84797078443100
 C         -14.36884911857915      -14.28445749387991       13.19205610276583
 C         -13.49335501595252      -14.73839458867433       12.05459303776382
 C         -13.60612252378448      -13.37164713976963       14.15945796810049
 O         -12.31392682111676      -14.95698809507667       12.23791699537099
 C         -14.49810993478700      -12.46194168844386       14.92637558875281
 C         -15.58477767685956      -12.78951035288144       15.71587998374304
 N         -14.41293321769765      -11.09700685651037       14.94374072877065
 C         -15.44594071097113      -10.66631697975519       15.73738767547737
 N         -16.15283865911638      -11.67092171987789       16.19953031900781
 H         -14.44731395165972      -15.78430853220731       14.66677474648970
 H         -15.20681235808549      -13.71339389894212       12.76549542097213
 H         -13.00415067711718      -13.97788809626135       14.84175496180235
 H         -12.89296719618555      -12.76951522864406       13.58831076240434
 H         -13.72539467325600      -10.52125226045718       14.45896751324265
 H         -15.95819091849347      -13.78624184602059       15.91698550568432
 H         -15.66434130158324       -9.62908217211413       15.95847407919151
 N         -14.12086150745731      -14.90096406686315       10.84387926844347
 C         -13.37438262209184      -15.29024464541770        9.65975761579516
 C         -12.37341183174956      -14.21198850492997        9.34315352706393
 C         -14.27940055281874      -15.55784027120358        8.47166988474016
 O         -12.76345892222602      -13.11022748176572        9.01909060264827
 H         -15.14611881382193      -14.88929742197146       10.77484060777013
 H         -12.82571299215744      -16.20650120968679        9.92798535515436
 H         -13.70524123153749      -15.87883508096879        7.60182163602661
 H         -15.01935490271183      -16.32546355735761        8.69992047065517
 H         -14.81126597876363      -14.64692864652155        8.19777478797752
 N         -11.04572179210114      -14.54309944257385        9.45702472034998
 C         -10.01241376678138      -13.58594613623241        9.12176459745450
 C         -10.12883327852945      -13.24378452297744        7.65497716148871
 C          -8.62109130347454      -14.09932986667852        9.44511888188672
 O          -9.99757618581084      -14.10861390479062        6.83107535309620
 H         -10.74371702586286      -15.48612041452853        9.70572689209951
 H         -10.22610250271240      -12.68436959652279        9.71610118836544
 H          -8.40443863280920      -14.98572128206757        8.84952841112921
 H          -7.86013591775758      -13.35316810330061        9.21511433159971
 H          -8.53241984563057      -14.36945263818674       10.49709969945647
 N         -10.40162114503610      -11.90452122605855        7.29293114568826
 C         -10.30708436706550      -11.46067230851826        5.98410856323109
 H         -10.30531797648749      -11.19570997013686        8.03487591916628
 H         -10.95261151082536      -12.08900182630388        5.40058588246725
72
 energy: -13.486868536607 gnorm: 0.000908247599 xtb: 6.6.1 (8d0f1dd)
 C         -18.86701261787493      -18.73407686470795       17.48419787639158
 O         -19.03699352822484      -19.19809032352662       16.38425262286701
 N         -18.53666950072522      -17.44606587154389       17.70665352068024
 C         -18.65912490587838      -16.45912799157291       16.63476359159769
 C         -17.41830195346374      -16.47033832718435       15.78743616679747
 C         -19.00387589390850      -15.06064908157983       17.17687413741525
 O         -16.48191709779729      -15.76032265228488       16.07092399433019
 C         -18.12043368334530      -14.64588657660381       18.33575311484618
 O         -18.25081657774985      -15.28656161380160       19.37245772028638
 O         -17.35610637860501      -13.70508434735405       18.15332008009178
 H         -18.46704171519018      -17.06260775617620       18.65993548758139
 H         -19.49266021054536      -16.81359692560897       16.00001067188033
 H         -18.91368680254944      -14.31616619442577       16.37873524378013
 H         -20.04322122570069      -15.03887780196591       17.52349213137262
 N         -17.44558241043600      -17.32625072105047       14.72700529729647
 C         -16.28558161525499      -17.49344610623852       13.87512689781454
 C         -15.90830135885631      -16.18799735022214       13.22210520587313
 C         -16.49269551364328      -18.59590960417515       12.83093052747434
 O         -16.44292762150028      -15.85031193568191       12.18717702390441