      -----------------------------------------------------------      
     |                   =====================                   |     
     |                           x T B                           |     
     |                   =====================                   |     
     |                         S. Grimme                         |     
     |          Mulliken Center for Theoretical Chemistry        |     
     |                    University of Bonn                     |     
      -----------------------------------------------------------      

   * xtb version 6.6.1 (8d0f1dd) compiled by 'conda@1efc2f54142f' on 2023-08-01

   xtb is free software: you can redistribute it and/or modify it under
   the terms of the GNU Lesser General Public License as published by
   the Free Software Foundation, either version 3 of the License, or
   (at your option) any later version.
   
   xtb is distributed in the hope that it will be useful,
   but WITHOUT ANY WARRANTY; without even the implied warranty of
   MERCHANTABILITY or FITNESS FOR A PARTICULAR PURPOSE.  See the
   GNU Lesser General Public License for more details.
   
   Cite this work as:
   * C. Bannwarth, E. Caldeweyher, S. Ehlert, A. Hansen, P. Pracht,
     J. Seibert, S. Spicher, S. Grimme, WIREs Comput. Mol. Sci., 2020, 11,
     e01493. DOI: 10.1002/wcms.1493
   
   for GFN2-xTB:
   * C. Bannwarth, S. Ehlert and S. Grimme., J. Chem. Theory Comput., 2019,
     15, 1652-1671. DOI: 10.1021/acs.jctc.8b01176
   for GFN1-xTB:
   * S. Grimme, C. Bannwarth, P. Shushkov, J. Chem. Theory Comput., 2017,
     13, 1989-2009. DOI: 10.1021/acs.jctc.7b00118
   for GFN0-xTB:
   * P. Pracht, E. Caldeweyher, S. Ehlert, S. Grimme, ChemRxiv, 2019, preprint.
     DOI: 10.26434/chemrxiv.8326202.v1
   for GFN-FF:
   * S. Spicher and S. Grimme, Angew. Chem. Int. Ed., 2020, 59, 15665-15673.
     DOI: 10.1002/anie.202004239
   
   for ALPB and GBSA implicit solvation:
   * S. Ehlert, M. Stahn, S. Spicher, S. Grimme, J. Chem. Theory Comput.,
     2021, 17, 4250-4261. DOI: 10.1021/acs.jctc.1c00471
   
   for DFT-D4:
   * E. Caldeweyher, C. Bannwarth and S. Grimme, J. Chem. Phys., 2017,
     147, 034112. DOI: 10.1063/1.4993215
   * E. Caldeweyher, S. Ehlert, A. Hansen, H. Neugebauer, S. Spicher,
     C. Bannwarth and S. Grimme, J. Chem. Phys., 2019, 150, 154122.
     DOI: 10.1063/1.5090222
   * E. Caldeweyher, J.-M. Mewes, S. Ehlert and S. Grimme, Phys. Chem. Chem. Phys.
     2020, 22, 8499-8512. DOI: 10.1039/D0CP00502A
   
   for sTDA-xTB:
   * S. Grimme and C. Bannwarth, J. Chem. Phys., 2016, 145, 054103.
     DOI: 10.1063/1.4959605
   
   in the mass-spec context:
   * V. Asgeirsson, C. Bauer and S. Grimme, Chem. Sci., 2017, 8, 4879.
     DOI: 10.1039/c7sc00601b
   * J. Koopman and S. Grimme, ACS Omega 2019, 4, 12, 15120-15133.
     DOI: 10.1021/acsomega.9b02011
   
   for metadynamics refer to:
   * S. Grimme, J. Chem. Theory Comput., 2019, 155, 2847-2862
     DOI: 10.1021/acs.jctc.9b00143
   
   for SPH calculations refer to:
   * S. Spicher and S. Grimme, J. Chem. Theory Comput., 2021, 17, 1701-1714
     DOI: 10.1021/acs.jctc.0c01306
   
   with help from (in alphabetical order)
   P. Atkinson, C. Bannwarth, F. Bohle, G. Brandenburg, E. Caldeweyher
   M. Checinski, S. Dohm, S. Ehlert, S. Ehrlich, I. Gerasimov, C. Hölzer
   A. Katbashev, J. Koopman, C. Lavigne, S. Lehtola, F. März, M. Müller,
   F. Musil, H. Neugebauer, J. Pisarek, C. Plett, P. Pracht, F. Pultar,
   J. Seibert, P. Shushkov, S. Spicher, M. Stahn, M. Steiner, T. Strunk,
   J. Stückrath, T. Rose, and J. Unsleber
   
 * started run on 2025/05/27 at 09:37:50.663     

           -------------------------------------------------
          |                Calculation Setup                |
           -------------------------------------------------

          program call               : xtb substructure_47.pdb --gfnff --input xtb_settings.inp --opt vtight --alpb water --verbose
          coordinate file            : substructure_47.pdb
          xtbhome directory          : /home/dargen3
          path for xtb               : /home/dargen3
          xcontrol input file        : xtb_settings.inp
          omp threads                :                     1

$$$$$$$$$$$$$$$$$$$$$$$$$$$$$$$$$$$$$$$$$$$$$$$$$$$$$$$$$$$$$$$$$$$$$$$$
 CONSTRAINTS & SCANS: DEBUG SECTION
$$$$$$$$$$$$$$$$$$$$$$$$$$$$$$$$$$$$$$$$$$$$$$$$$$$$$$$$$$$$$$$$$$$$$$$$
   ID    Z sym.   atoms
    1    6  C     1, 4, 5, 11, 12, 18, 19, 25, 26, 32, 33, 39
    2    8  O     2, 6, 13, 20, 27, 34
    3    7  N     3, 10, 17, 24, 31, 38
    4    1  H     7-9, 14-16, 21-23, 28-30, 35-37, 40-42
> constrain
-> atoms: 1, 2, 3, 4, 5, 6, 7, 8, 9, 10, 11, 12, 13, 14, 15, 16, 18, 24, 25, 26, 27, 28, 29, 30, 31, 32, 33, 34, 35, 36, 37, 38, 39, 40, 41, 42
--> 1: 1
--> 2: 2
--> 3: 3
--> 4: 4
--> 5: 5
--> 6: 6
--> 7: 7
--> 8: 8
--> 9: 9
--> 10: 10
--> 11: 11
--> 12: 12
--> 13: 13
--> 14: 14
--> 15: 15
--> 16: 16
--> 17: 18
--> 18: 24
--> 19: 25
--> 20: 26
--> 21: 27
--> 22: 28
--> 23: 29
--> 24: 30
--> 25: 31
--> 26: 32
--> 27: 33
--> 28: 34
--> 29: 35
--> 30: 36
--> 31: 37
--> 32: 38
--> 33: 39
--> 34: 40
--> 35: 41
--> 36: 42
-> force constant=1.0
$$$$$$$$$$$$$$$$$$$$$$$$$$$$$$$$$$$$$$$$$$$$$$$$$$$$$$$$$$$$$$$$$$$$$$$$
           -------------------------------------------------
          |                   Constraints                   |
           -------------------------------------------------

 * 36 constrained atom positions
   positions refering to input geometry

     #   Z                                   position/Å      displ./Å
     1   6 C     -1.7480002   -11.4420011    -0.6120001     0.0000000
     2   8 O     -2.1910002   -12.2830011    -1.3650001     0.0000000
     3   7 N     -0.7670001   -10.5550010    -0.9970001     0.0000000
     4   6 C     -0.3730000   -10.4770010    -2.3880002     0.0000000
     5   6 C     -0.7830001    -9.1430008    -2.9710003     0.0000000
     6   8 O     -1.8540002    -8.6820008    -2.6340002     0.0000000
     7   1 H     -0.5620001    -9.7230009    -0.4420000     0.0000000
     8   1 H      0.7060001   -10.6250010    -2.4480002     0.0000000
     9   1 H     -0.8700001   -11.2790010    -2.9250003     0.0000000
    10   7 N      0.0140000    -8.4710008    -3.8800004     0.0000000
    11   6 C      1.3240001    -8.8870008    -4.3620004     0.0000000
    12   6 C      1.5250001    -8.4900008    -5.8070005     0.0000000
    13   8 O      0.5870001    -8.5250008    -6.5730006     0.0000000
    14   1 H     -0.3490000    -7.6380007    -4.3340004     0.0000000
    15   1 H      2.0980002    -8.4840008    -3.7310003     0.0000000
    16   1 H      1.3850001    -9.9910009    -4.3210004     0.0000000
    18   6 C      3.0050003    -7.6070007    -7.5660007     0.0000000
    24   7 N      4.2590004    -5.4290005    -8.0670007     0.0000000
    25   6 C      5.4280005    -5.9890006    -8.7440008     0.0000000
    26   6 C      5.4130005    -5.6770005   -10.2210009     0.0000000
    27   8 O      4.6370004    -6.2680006   -10.9400010     0.0000000
    28   1 H      4.2110004    -4.4150004    -8.1190008     0.0000000
    29   1 H      6.3350006    -5.6060005    -8.2820008     0.0000000
    30   1 H      5.4520005    -7.0780007    -8.6170008     0.0000000
    31   7 N      6.2810006    -4.7200004   -10.7090010     0.0000000
    32   6 C      6.1780006    -4.2520004   -12.0880011     0.0000000
    33   6 C      5.8100005    -2.7860003   -12.1150011     0.0000000
    34   8 O      4.8490004    -2.4390002   -11.4610011     0.0000000
    35   1 H      6.7870006    -4.0980004   -10.0790009     0.0000000
    36   1 H      7.1240007    -4.4370004   -12.5990012     0.0000000
    37   1 H      5.4000005    -4.8320004   -12.5750012     0.0000000
    38   7 N      6.5060006    -1.8430002   -12.8550012     0.0000000
    39   6 C      7.7600007    -2.0220002   -13.5740013     0.0000000
    40   1 H      6.2100006    -0.8650001   -12.8150012     0.0000000
    41   1 H      8.5340008    -2.3410002   -12.8650012     0.0000000
    42   1 H      7.6300007    -2.8310003   -14.3120013     0.0000000

     applying 630 atom pairwise harmonic potentials
       applied force constant per pair:     0.0285714
     effective force constant per atom:     1.0000000
         constraining energy/grad norm:     0.0000000     0.0000000

     total constraint energy/grad norm:     0.0000000     0.0000000

          charge from pdb residues: 0

          entering GFN-FF setup routine... 42

          ==================== Thresholds ====================
          CN  :   150.00000
          rep :   500.00000
          disp:  2500.00000
          HB1 :   250.00000
          HB2 :   450.00000

          Pauling EN used:
          Z : 1  EN :  2.20
          Z : 6  EN :  2.55
          Z : 7  EN :  3.04
          Z : 8  EN :  3.44
          electric field strengths (au): 0.000

           ------------------------------------------------- 
          |           Force Field Initialization            |
           ------------------------------------------------- 

          distances ...
          ----------------------------------------
          generating topology and atomic info file ...
          pair mat ...
          computing topology distances matrix with Floyd-Warshall algo ...
          making topology EEQ charges ...
          #fragments for EEQ constrain from pdb file: 7
          ----------------------------------------
          generating topology and atomic info file ...
          pair mat ...
          computing topology distances matrix with Floyd-Warshall algo ...
          making topology EEQ charges ...
          #fragments for EEQ constrain from pdb file: 7
          rings ...
          # BATM   334
          # H in HB   18
          doing iterative Hueckel for 6 subsystem(s) ...
          iterative Hueckel run to get P ...
Hueckel system :  1 charge :   0 ndim/Nel :    3    3   eps(HOMO/LUMO)   -0.953545   -0.953545
Hueckel system :  2 charge :   0 ndim/Nel :    3    4   eps(HOMO/LUMO)   -0.911563   -0.911563
Hueckel system :  3 charge :   0 ndim/Nel :    3    4   eps(HOMO/LUMO)   -0.911539   -0.911539
Hueckel system :  4 charge :   0 ndim/Nel :    3    4   eps(HOMO/LUMO)   -0.912604   -0.912604
Hueckel system :  5 charge :   0 ndim/Nel :    3    4   eps(HOMO/LUMO)   -0.910014   -0.910014
Hueckel system :  6 charge :   0 ndim/Nel :    4    5   eps(HOMO/LUMO)    1.305314    1.305314
WARNING: probably wrong pi occupation for system 6. Second attempt with Nel=Nel-1!
 at,nb,topo%hyb,Npiel:          33  C             3           2           1
 at,nb,topo%hyb,Npiel:          34  O             1           2           1
 at,nb,topo%hyb,Npiel:          38  N             3           3           2
 at,nb,topo%hyb,Npiel:          39  C             3           2           1

          eigenvalues
 #    :           1          2          3          4
 occ. :        2.000      1.987      0.013      0.000
 eps  :        -4.349     -2.183      1.305      3.389
Hueckel system :  6 charge :   0 ndim/Nel :    4    4   eps(HOMO/LUMO)   -2.182830    1.305314

  atom   neighbors  erfCN metchar sp-hybrid imet pi  qest     coordinates
    1   C      2    1.93   0.00        -2    0    1   0.120   -3.303241  -21.622246   -1.156512
    2   O      1    0.98   0.00         2    0    1  -0.120   -4.140390  -23.211506   -2.579476
    3   N      3    2.79   0.00        -3    0    1  -0.166   -1.449420  -19.946059   -1.884057
    4   C      4    3.49   0.00         3    0    0   0.005   -0.704868  -19.798661   -4.512666
    5   C      3    2.79   0.00         2    0    1   0.174   -1.479656  -17.277766   -5.614376
    6   O      1    0.98   0.00         2    0    1  -0.352   -3.503552  -16.406602   -4.977539
    7   H      1    0.98   0.00         0    0    0   0.153   -1.062026  -18.373807   -0.835259
    8   H      1    0.97   0.00         0    0    0   0.093    1.334147  -20.078340   -4.626050
    9   H      1    0.97   0.00         0    0    0   0.093   -1.644062  -21.314221   -5.527449
   10   N      3    2.79   0.00        -3    0    1  -0.168    0.026456  -16.007870   -7.332137
   11   C      4    3.49   0.00         3    0    0   0.006    2.501997  -16.793996   -8.242985
   12   C      3    2.80   0.00         2    0    1   0.174    2.881832  -16.043775  -10.973640
   13   O      1    0.98   0.00         2    0    1  -0.352    1.109269  -16.109915  -12.421170
   14   H      1    0.98   0.00         0    0    0   0.155   -0.659514  -14.433728   -8.190073
   15   H      1    0.97   0.00         0    0    0   0.092    3.964645  -16.032436   -7.050568
   16   H      1    0.97   0.01         0    0    0   0.092    2.617271  -18.880254   -8.165507
   17   N      3    2.79   0.00        -3    0    1  -0.168    5.262887  -15.327569  -11.759766
   18   C      4    3.49   0.00         3    0    0   0.006    5.678627  -14.375147  -14.297668
   19   C      3    2.79   0.00         2    0    1   0.175    5.969645  -11.531109  -14.278771
   20   O      1    0.98   0.00         2    0    1  -0.353    4.253774  -10.316015  -13.356584
   21   H      1    0.98   0.00         0    0    0   0.154    6.666954  -14.951513  -10.491759
   22   H      1    0.97   0.00         0    0    0   0.093    7.286784  -15.323789  -15.151824
   23   H      1    0.97   0.00         0    0    0   0.093    4.004330  -14.853247  -15.412606
   24   N      3    2.79   0.00        -3    0    1  -0.165    8.048344  -10.259323  -15.244421
   25   C      4    3.49   0.00         3    0    0   0.004   10.257433  -11.317570  -16.523765
   26   C      3    2.79   0.00         2    0    1   0.178   10.229088  -10.727975  -19.314891
   27   O      1    0.98   0.00         2    0    1  -0.354    8.762660  -11.844803  -20.673604
   28   H      1    0.98   0.00         0    0    0   0.150    7.957637   -8.343141  -15.342686
   29   H      1    0.97   0.00         0    0    0   0.093   11.971415  -10.593805  -15.650712
   30   H      1    0.97   0.00         0    0    0   0.093   10.302787  -13.375482  -16.283770
   31   N      3    2.79   0.00        -3    0    1  -0.170   11.869370   -8.919507  -20.237077
   32   C      4    3.49   0.00         3    0    0   0.006   11.674728   -8.035115  -22.843009
   33   C      3    2.79   0.00         2    0    1   0.195   10.979309   -5.264777  -22.894032
   34   O      1    0.98   0.00         2    0    1  -0.357    9.163282   -4.609042  -21.658151
   35   H      1    0.98   0.00         0    0    0   0.147   12.825571   -7.744098  -19.046550
   36   H      1    0.97   0.00         0    0    0   0.090   13.462409   -8.384715  -23.808659
   37   H      1    0.97   0.00         0    0    0   0.090   10.204521   -9.131157  -23.763306
   38   N      3    2.79   0.00         3    0    1  -0.226   12.294558   -3.482765  -24.292429
   39   C      3    2.78   0.00         2    0    1  -0.008   14.664275   -3.821026  -25.651142
   40   H      1    0.98   0.00         0    0    0   0.123   11.735199   -1.634613  -24.216840
   41   H      1    0.97   0.00         0    0    0   0.055   16.126923   -4.423849  -24.311327
   42   H      1    0.97   0.01         0    0    0   0.055   14.418610   -5.349815  -27.045760

molecular fragment  # atoms  topo charge
       1             2            -0.000
       2             7            -0.000
       3             7            -0.000
       4             7            -0.000
       5             7             0.000
       6             7            -0.000
       7             5             0.000


          #atoms :   42
          #bonds :   41

 bond atoms        type  in ring    R      R0    piBO    fqq  kbond(tot)  alp
 O  C     2    1      2    0     1.213   0.996   0.799   1.047  -0.252   0.584
 N  C     3    1      2    0     1.377   1.215   0.504   1.047  -0.235   0.524
 C  N     4    3      1    0     1.448   1.326 -99.000   1.033  -0.151   0.496
 C  C     5    4      1    0     1.512   1.332 -99.000   1.013  -0.162   0.475
 O  C     6    5      2    0     1.214   1.031   0.856   1.047  -0.262   0.584
 H  N     7    3      1    0     1.021   0.890 -99.000   1.047  -0.176   0.551
 H  C     8    4      1    0     1.091   0.977 -99.000   1.018  -0.164   0.482
 H  C     9    4      1    0     1.086   0.977 -99.000   1.018  -0.164   0.482
 N  C    10    5      2    0     1.383   1.263   0.503   1.047  -0.234   0.524
 C  N    11   10      1    0     1.457   1.326 -99.000   1.035  -0.151   0.496
 C  C    12   11      1    0     1.512   1.332 -99.000   1.011  -0.162   0.475
 O  C    13   12      2    0     1.212   1.031   0.856   1.047  -0.262   0.584
 H  N    14   10      1    0     1.016   0.890 -99.000   1.047  -0.176   0.551
 H  C    15   11      1    0     1.077   0.976 -99.000   1.017  -0.164   0.482
 H  C    16   11      1    0     1.106   0.976 -99.000   1.017  -0.164   0.482
 N  C    17   12      2    0     1.380   1.263   0.503   1.047  -0.234   0.524
 C  N    18   17      1    0     1.451   1.326 -99.000   1.034  -0.151   0.496
 C  C    19   18      1    0     1.513   1.332 -99.000   1.012  -0.162   0.475
 O  C    20   19      2    0     1.215   1.031   0.856   1.047  -0.262   0.584
 H  N    21   17      1    0     1.021   0.890 -99.000   1.047  -0.176   0.551
 H  C    22   18      1    0     1.086   0.977 -99.000   1.017  -0.164   0.482
 H  C    23   18      1    0     1.094   0.976 -99.000   1.017  -0.164   0.482
 N  C    24   19      2    0     1.387   1.263   0.503   1.047  -0.234   0.524
 C  N    25   24      1    0     1.462   1.325 -99.000   1.031  -0.151   0.496
 C  C    26   25      1    0     1.510   1.332 -99.000   1.015  -0.163   0.475
 O  C    27   26      2    0     1.212   1.031   0.856   1.047  -0.262   0.584
 H  N    28   24      1    0     1.016   0.890 -99.000   1.047  -0.176   0.551
 H  C    29   25      1    0     1.088   0.976 -99.000   1.019  -0.164   0.482
 H  C    30   25      1    0     1.097   0.976 -99.000   1.019  -0.164   0.482
 N  C    31   26      2    0     1.381   1.263   0.504   1.047  -0.234   0.524
 C  N    32   31      1    0     1.460   1.326 -99.000   1.034  -0.151   0.496
 C  C    33   32      1    0     1.512   1.332 -99.000   1.011  -0.162   0.475
 O  C    34   33      2    0     1.213   1.018   0.930   1.047  -0.274   0.584
 H  N    35   31      1    0     1.020   0.890 -99.000   1.047  -0.176   0.551
 H  C    36   32      1    0     1.091   0.976 -99.000   1.018  -0.164   0.482
 H  C    37   32      1    0     1.086   0.977 -99.000   1.018  -0.164   0.482
 N  C    38   33      2    0     1.386   1.291   0.346   1.047  -0.203   0.524
 C  N    39   38      2    0     1.457   1.189   0.906   1.006  -0.302   0.524
 H  N    40   38      1    0     1.023   0.890 -99.000   1.047  -0.176   0.551
 H  C    41   39      1    0     1.097   0.949 -99.000   1.029  -0.179   0.490
 H  C    42   39      1    0     1.103   0.949 -99.000   1.029  -0.179   0.490
          #angl  :   67

 angle atoms        phi0    phi      FC  pi rings
    1    3    2   145.000 122.222   0.082 F   0
    3    4    1   115.000 119.804   0.411 F   0
    3    7    1   115.000 121.054   0.335 F   0
    3    7    4   104.000 115.071   0.182 F   0
    4    5    3   109.500 110.126   0.307 F   0
    4    8    3   109.500 108.345   0.253 F   0
    4    8    5   109.500 111.508   0.251 F   0
    4    9    3   109.500 108.110   0.253 F   0
    4    9    5   109.500 109.682   0.251 F   0
    4    9    8   108.600 108.991   0.209 F   0
    5    6    4   120.000 117.852   0.178 F   0
    5   10    4   120.000 121.712   0.243 F   0
    5   10    6   120.000 120.425   0.177 F   0
   10   11    5   115.000 126.654   0.409 F   0
   10   14    5   115.000 119.094   0.333 F   0
   10   14   11   104.000 114.062   0.182 F   0
   11   12   10   109.500 111.152   0.307 F   0
   11   15   10   109.500 110.222   0.253 F   0
   11   15   12   109.500 111.481   0.252 F   0
   11   16   10   109.500 108.802   0.253 F   0
   11   16   12   109.500 106.863   0.252 F   0
   11   16   15   108.600 108.184   0.209 F   0
   12   13   11   120.000 119.587   0.178 F   0
   12   17   11   120.000 118.790   0.243 F   0
   12   17   13   120.000 121.618   0.177 F   0
   17   18   12   115.000 120.849   0.409 F   0
   17   21   12   115.000 121.333   0.333 F   0
   17   21   18   104.000 115.486   0.182 F   0
   18   19   17   109.500 110.781   0.307 F   0
   18   22   17   109.500 110.076   0.253 F   0
   18   22   19   109.500 112.497   0.251 F   0
   18   23   17   109.500 107.215   0.253 F   0
   18   23   19   109.500 108.423   0.251 F   0
   18   23   22   108.600 107.643   0.209 F   0
   19   20   18   120.000 116.941   0.178 F   0
   19   24   18   120.000 124.121   0.243 F   0
   19   24   20   120.000 118.938   0.176 F   0
   24   25   19   115.000 128.220   0.409 F   0
   24   28   19   115.000 117.736   0.334 F   0
   24   28   25   104.000 113.333   0.182 F   0
   25   26   24   109.500 111.460   0.307 F   0
   25   29   24   109.500 109.582   0.253 F   0
   25   29   26   109.500 110.556   0.251 F   0
   25   30   24   109.500 110.130   0.253 F   0
   25   30   26   109.500 108.587   0.251 F   0
   25   30   29   108.600 106.395   0.209 F   0
   26   27   25   120.000 119.083   0.178 F   0
   26   31   25   120.000 118.859   0.242 F   0
   26   31   27   120.000 122.057   0.176 F   0
   31   32   26   115.000 120.768   0.409 F   0
   31   35   26   115.000 121.080   0.333 F   0
   31   35   32   104.000 115.028   0.182 F   0
   32   33   31   109.500 110.177   0.307 F   0
   32   36   31   109.500 109.080   0.253 F   0
   32   36   33   109.500 111.540   0.251 F   0
   32   37   31   109.500 107.637   0.253 F   0
   32   37   33   109.500 109.609   0.251 F   0
   32   37   36   108.600 108.703   0.209 F   0
   33   34   32   120.000 117.426   0.177 F   0
   33   38   32   120.000 123.165   0.241 F   0
   33   38   34   120.000 119.406   0.174 F   0
   38   39   33   113.000 127.751   0.042 F   0
   38   40   33   113.000 118.975   0.211 F   0
   38   40   39   113.000 112.709   0.105 F   0
   39   41   38   120.000 108.913   0.204 F   0
   39   42   38   120.000 108.604   0.204 F   0
   39   42   41   120.000 107.600   0.167 F   0
 torsion atoms        nrot   rings    phi0    phi      FC
    3    1    4    2   2      0     180.000   9.114   0.765
    3    1    7    2   2      0     180.000 165.311   1.135
    4    3    5    1   3      0     180.000 112.487   0.024
    4    3    5    7   3      0     180.000  45.073   0.032
    4    3    8    1   3      0     180.000 125.312   0.034
    4    3    8    7   3      0     180.000  77.128   0.045
    4    3    9    1   3      0     180.000   7.332   0.034
    4    3    9    7   3      0     180.000 164.892   0.045
    5    4    6    3   3      0     180.000  38.779   0.066
    5    4    6    8   3      0     180.000 159.091   0.115
    5    4    6    9   3      0     180.000  80.082   0.115
    5    4   10    3   3      0     180.000 142.480   0.041
    5    4   10    8   3      0     180.000  22.168   0.072
    5    4   10    9   3      0     180.000  98.659   0.072
   10    5   11    4   2      0     180.000   2.251   0.614
   10    5   11    6   2      0     180.000 179.039   0.833
   10    5   14    4   2      0     180.000 172.425   0.911
   10    5   14    6   2      0     180.000   6.285   1.235
   11   10   12    5   3      0     180.000 145.532   0.022
   11   10   12   14   3      0     180.000  29.374   0.032
   11   10   15    5   3      0     180.000  90.346   0.032
   11   10   15   14   3      0     180.000  94.748   0.045
   11   10   16    5   3      0     180.000  28.126   0.032
   11   10   16   14   3      0     180.000 146.780   0.045
   12   11   13   10   3      0     180.000  35.893   0.066
   12   11   13   15   3      0     180.000 159.298   0.115
   12   11   13   16   3      0     180.000  82.687   0.115
   12   11   17   10   3      0     180.000 144.905   0.041
   12   11   17   15   3      0     180.000  21.500   0.072
   12   11   17   16   3      0     180.000  96.515   0.072
   17   12   18   11   2      0     180.000 174.412   0.614
   17   12   18   13   2      0     180.000   6.403   0.832
   17   12   21   11   2      0     180.000  12.535   0.911
   17   12   21   13   2      0     180.000 168.280   1.235
   18   17   19   12   3      0     180.000 103.122   0.022
   18   17   19   21   3      0     180.000  59.759   0.032
   18   17   22   12   3      0     180.000 131.818   0.032
   18   17   22   21   3      0     180.000  65.300   0.045
   18   17   23   12   3      0     180.000  15.006   0.032
   18   17   23   21   3      0     180.000 177.888   0.045
   19   18   20   17   3      0     180.000  56.341   0.066
   19   18   20   22   3      0     180.000 179.979   0.115
   19   18   20   23   3      0     180.000  61.050   0.115
   19   18   24   17   3      0     180.000 123.804   0.041
   19   18   24   22   3      0     180.000   0.124   0.072
   19   18   24   23   3      0     180.000 118.805   0.072
   24   19   25   18   2      0     180.000   2.685   0.612
   24   19   25   20   2      0     180.000 177.167   0.830
   24   19   28   18   2      0     180.000 172.320   0.908
   24   19   28   20   2      0     180.000   7.532   1.231
   25   24   26   19   3      0     180.000 108.043   0.022
   25   24   26   28   3      0     180.000  61.970   0.032
   25   24   29   19   3      0     180.000 129.255   0.032
   25   24   29   28   3      0     180.000  60.732   0.045
   25   24   30   19   3      0     180.000  12.545   0.032
   25   24   30   28   3      0     180.000 177.442   0.045
   26   25   27   24   3      0     180.000  73.699   0.066
   26   25   27   29   3      0     180.000 164.159   0.115
   26   25   27   30   3      0     180.000  47.790   0.115
   26   25   31   24   3      0     180.000 105.955   0.041
   26   25   31   29   3      0     180.000  16.187   0.072
   26   25   31   30   3      0     180.000 132.556   0.072
   31   26   32   25   2      0     180.000 171.462   0.620
   31   26   32   27   2      0     180.000   8.181   0.840
   31   26   35   25   2      0     180.000  12.437   0.920
   31   26   35   27   2      0     180.000 167.207   1.247
   32   31   33   26   3      0     180.000 115.628   0.022
   32   31   33   35   3      0     180.000  44.596   0.032
   32   31   36   26   3      0     180.000 121.620   0.032
   32   31   36   35   3      0     180.000  78.156   0.045
   32   31   37   26   3      0     180.000   3.844   0.032
   32   31   37   35   3      0     180.000 164.068   0.045
   33   32   34   31   3      0     180.000  51.334   0.066
   33   32   34   36   3      0     180.000 172.631   0.115
   33   32   34   37   3      0     180.000  66.933   0.115
   33   32   38   31   3      0     180.000 129.357   0.041
   33   32   38   36   3      0     180.000   8.061   0.072
   33   32   38   37   3      0     180.000 112.375   0.072
   38   33   39   32   2      0     180.000   8.346   0.343
   38   33   39   34   2      0     180.000 172.358   0.465
   38   33   40   32   2      0     180.000 179.057   0.489
   38   33   40   34   2      0     180.000   1.648   0.663
   39   38   41   33   2      0     180.000  58.840   1.385
   39   38   41   40   2      0     180.000 112.355   1.974
   39   38   42   33   2      0     180.000  58.069   1.385
   39   38   42   40   2      0     180.000 130.736   1.974
 out-of-plane atoms          phi0    phi      FC
    3    7    1    4          0.000  20.500   0.133
    5    6   10    4          0.000  -1.098  23.911
   10   14    5   11          0.000   4.269   0.126
   12   13   17   11          0.000  -0.714  23.916
   17   21   12   18          0.000  15.489   0.127
   19   20   24   18          0.000  -0.123  23.987
   24   28   19   25          0.000   8.126   0.137
   26   27   31   25          0.000   0.312  24.123
   31   35   26   32          0.000  17.913   0.116
   33   34   38   32          0.000  -0.590  28.543
   38   40   33   39          0.000  -7.333  -0.052
   39   41   42   38          0.000  57.010   0.552
          #tors  :   98
          #nmol  :   7
          #optfrag :   7

 GFN-FF setup done.

           ------------------------------------------------- 
          |                   G F N - F F                   |
          |          A general generic force-field          |
          |                  Version 1.0.3                  | 
           ------------------------------------------------- 
      * Solvation model:               ALPB
        Solvent                        water
        Parameter file                 internal GFN-FF/ALPB
        Dielectric constant                8.0200E+01
        Reference state                gsolv [1 M gas/solution]
        Free energy shift                  3.6494E-04 Eh       2.2900E-01 kcal/mol
        Temperature                        2.9815E+02 K
        Density                            1.0000E+00 kg/L
        Solvent mass                       1.8000E+01 g/mol
        Interaction kernel             P16
        Born radius scaling (c1)           1.5056E+00
        Born radii integrator          GBOBC
        Born offset                        0.0000E+00 a0       0.0000E+00 AA
        H-bond correction              true
        Ion screening                  false
        Surface tension                    1.0000E-05 Eh       1.5569E+01 dyn/cm
        Grid points                               230 per atom
          Number of HB bonds (bound hydrogen)     423
          Number of HB bonds (unbound hydrogen)   52
          Number of XB bonds                      0

 E+G (total)                   0 d,  0 h,  0 min,  0.001 sec
 distance/D3 list               ...        0 min,  0.000 sec (  0.295%)
 non bonded repulsion           ...        0 min,  0.000 sec (  1.990%)
 dCN                            ...        0 min,  0.000 sec (  5.238%)
 EEQ energy and q               ...        0 min,  0.000 sec (  4.301%)
 D3                             ...        0 min,  0.000 sec (  8.614%)
 EEQ gradient                   ...        0 min,  0.000 sec (  4.798%)
 bonds                          ...        0 min,  0.000 sec (  0.860%)
 bend and torsion               ...        0 min,  0.000 sec (  3.474%)
 bonded ATM                     ...        0 min,  0.000 sec (  1.477%)
 HB/XB (incl list setup)        ...        0 min,  0.000 sec (  8.591%)
 GBSA                           ...        0 min,  0.001 sec ( 63.106%)

         :::::::::::::::::::::::::::::::::::::::::::::::::::::
         ::                     SUMMARY                     ::
         :::::::::::::::::::::::::::::::::::::::::::::::::::::
         :: total energy              -7.489586074959 Eh    ::
         :: total w/o Gsolv           -7.440394258437 Eh    ::
         :: total w/o Gsasa/hb        -7.483353782224 Eh    ::
         :: gradient norm              0.167983975434 Eh/a0 ::
         ::.................................................::
         :: bond energy               -7.538621000080 Eh    ::
         :: angle energy               0.033664799573 Eh    ::
         :: torsion energy             0.022228283246 Eh    ::
         :: repulsion energy           0.457999078953 Eh    ::
         :: electrostat energy        -0.377037931810 Eh    ::
         :: dispersion energy         -0.028158904217 Eh    ::
         :: HB energy                 -0.000685052750 Eh    ::
         :: XB energy                  0.000000000000 Eh    ::
         :: bonded atm energy         -0.009783531351 Eh    ::
         :: external energy            0.000000000000 Eh    ::
         :: -> Gsolv                  -0.049191816523 Eh    ::
         ::    -> Gborn               -0.042959523788 Eh    ::
         ::    -> Gsasa                0.011669025213 Eh    ::
         ::    -> Ghb                 -0.018266257203 Eh    ::
         ::    -> Gshift               0.000364939255 Eh    ::
         :: add. restraining           0.000000000000 Eh    ::
         :: total charge              -0.000000000000 e     ::
         ::.................................................::
         :: atomisation energy         0.000000000000 Eh    ::
         :::::::::::::::::::::::::::::::::::::::::::::::::::::

      ----------------------------------------------------------- 
     |                   =====================                   |
     |                        A N C O P T                        |
     |                   =====================                   |
     |               Approximate Normal Coordinate               |
     |                Rational Function Optimizer                |
      ----------------------------------------------------------- 

          ...................................................
          :                      SETUP                      :
          :.................................................:
          :   optimization level         verytight          :
          :   max. optcycles                    10          :
          :   ANC micro-cycles                  10          :
          :   degrees of freedom               120          :
          :.................................................:
          :   RF solver                   davidson          :
          :   write xtbopt.log                true          :
          :   linear?                        false          :
          :   energy convergence         0.1000000E-06 Eh   :
          :   grad. convergence          0.2000000E-03 Eh/α :
          :   maxmium RF displ.          1.0000000          :
          :   Hlow (freq-cutoff)         0.1000000E-01      :
          :   Hmax (freq-cutoff)         5.0000000          :
          :   S6 in model hess.         20.0000000          :
          ...................................................

generating ANC from model Hessian ...
Using GFN-FF Lindh-Hessian
 Shifting diagonal of input Hessian by    0.0000000000000000     
 Lowest  eigenvalues of input Hessian
    0.000000    0.000000    0.000000    0.000000    0.000000    0.000000
    0.016268    0.018485    0.023213    0.025794    0.046259    0.050054
    0.060722    0.066117    0.073120    0.085564    0.088686    0.098640
 Highest eigenvalues
    3.655055    3.914058    4.015691    4.106633    4.229137    4.276551


........................................................................
.............................. CYCLE    1 ..............................
........................................................................
     iter. time                 ...        0 min,  0.001 sec
 * total energy  :    -7.4895861 Eh     change        0.0000000E+00 Eh
   gradient norm :     0.1679840 Eh/α   predicted     0.0000000E+00 (    NaN%)
   displ. norm   :     0.0872793 α      lambda       -0.1111396E-01
   maximum displ.:     0.0343371 α      in ANC's #48, #107, #45, ...

........................................................................
.............................. CYCLE    2 ..............................
........................................................................
     iter. time                 ...        0 min,  0.001 sec
 * total energy  :    -7.4969764 Eh     change       -0.7390339E-02 Eh
   gradient norm :     0.0615157 Eh/α   predicted    -0.5601712E-02 ( -24.20%)
   displ. norm   :     0.0571337 α      lambda       -0.2615005E-02
   maximum displ.:     0.0158158 α      in ANC's #107, #48, #35, ...

........................................................................
.............................. CYCLE    3 ..............................
........................................................................
     iter. time                 ...        0 min,  0.001 sec
 * total energy  :    -7.4984524 Eh     change       -0.1475999E-02 Eh
   gradient norm :     0.0167599 Eh/α   predicted    -0.1311830E-02 ( -11.12%)
   displ. norm   :     0.0263342 α      lambda       -0.2516281E-03
   maximum displ.:     0.0103903 α      in ANC's #22, #13, #44, ...

........................................................................
.............................. CYCLE    4 ..............................
........................................................................
     iter. time                 ...        0 min,  0.001 sec
 * total energy  :    -7.4986342 Eh     change       -0.1817397E-03 Eh
   gradient norm :     0.0091998 Eh/α   predicted    -0.1308263E-03 ( -28.01%)
   displ. norm   :     0.0221259 α      lambda       -0.1101784E-03
   maximum displ.:     0.0107963 α      in ANC's #22, #37, #44, ...

........................................................................
.............................. CYCLE    5 ..............................
........................................................................
     iter. time                 ...        0 min,  0.001 sec
 * total energy  :    -7.4986992 Eh     change       -0.6506730E-04 Eh
   gradient norm :     0.0035108 Eh/α   predicted    -0.5512854E-04 ( -15.27%)
   displ. norm   :     0.0083472 α      lambda       -0.1663849E-04
   maximum displ.:     0.0038169 α      in ANC's #22, #37, #44, ...

........................................................................
.............................. CYCLE    6 ..............................
........................................................................
     iter. time                 ...        0 min,  0.001 sec
 * total energy  :    -7.4987115 Eh     change       -0.1225112E-04 Eh
   gradient norm :     0.0023989 Eh/α   predicted    -0.8488182E-05 ( -30.72%)
   displ. norm   :     0.0085786 α      lambda       -0.1097538E-04
   maximum displ.:     0.0030493 α      in ANC's #37, #44, #22, ...

........................................................................
.............................. CYCLE    7 ..............................
........................................................................
     iter. time                 ...        0 min,  0.001 sec
 * total energy  :    -7.4987183 Eh     change       -0.6791375E-05 Eh
   gradient norm :     0.0016057 Eh/α   predicted    -0.5503451E-05 ( -18.96%)
   displ. norm   :     0.0054923 α      lambda       -0.1658351E-05
   maximum displ.:     0.0021832 α      in ANC's #13, #3, #2, ...

........................................................................
.............................. CYCLE    8 ..............................
........................................................................
     iter. time                 ...        0 min,  0.001 sec
 * total energy  :    -7.4987200 Eh     change       -0.1701769E-05 Eh
   gradient norm :     0.0007899 Eh/α   predicted    -0.1109651E-05 ( -34.79%)
   displ. norm   :     0.0020395 α      lambda       -0.4840876E-06
   maximum displ.:     0.0008558 α      in ANC's #3, #4, #35, ...

........................................................................
.............................. CYCLE    9 ..............................
........................................................................
     iter. time                 ...        0 min,  0.001 sec
 * total energy  :    -7.4987204 Eh     change       -0.4511730E-06 Eh
   gradient norm :     0.0002964 Eh/α   predicted    -0.2447380E-06 ( -45.76%)
   displ. norm   :     0.0022220 α      lambda       -0.1204899E-06
   maximum displ.:     0.0013582 α      in ANC's #3, #2, #4, ...

........................................................................
.............................. CYCLE   10 ..............................
........................................................................
     iter. time                 ...        0 min,  0.001 sec
 * total energy  :    -7.4987206 Eh     change       -0.1574938E-06 Eh
   gradient norm :     0.0002252 Eh/α   predicted    -0.6832225E-07 ( -56.62%)
   displ. norm   :     0.0049629 α      lambda       -0.1728637E-06
   maximum displ.:     0.0031511 α      in ANC's #3, #2, #4, ...

   *** FAILED TO CONVERGE GEOMETRY OPTIMIZATION IN 10 ITERATIONS ***


 ANCopt (total)                0 d,  0 h,  0 min,  0.010 sec
 optimizer setup                ...        0 min,  0.000 sec (  0.780%)
 model hessian                  ...        0 min,  0.000 sec (  4.622%)
 ANC generation                 ...        0 min,  0.001 sec ( 14.228%)
 coordinate transformation      ...        0 min,  0.000 sec (  0.418%)
 single point calculation       ...        0 min,  0.007 sec ( 70.381%)
 optimization log               ...        0 min,  0.001 sec (  4.791%)
 hessian update                 ...        0 min,  0.000 sec (  0.609%)
 rational function              ...        0 min,  0.000 sec (  2.383%)

================
 final structure:
================
ATOM      1  C   GLY A  11      -1.725 -11.450  -0.614  1.00  0.00           C  
ATOM      2  O   GLY A  11      -2.197 -12.274  -1.354  1.00  0.00           O  
ATOM      3  N   GLY A  12      -0.769 -10.558  -0.993  1.00  0.00           N  
ATOM      4  CA  GLY A  12      -0.373 -10.468  -2.383  1.00  0.00           C  
ATOM      5  C   GLY A  12      -0.784  -9.145  -2.973  1.00  0.00           C  
ATOM      6  O   GLY A  12      -1.857  -8.685  -2.638  1.00  0.00           O  
ATOM      7  H   GLY A  12      -0.572  -9.718  -0.444  1.00  0.00           H  
ATOM      8  HA2 GLY A  12       0.707 -10.624  -2.447  1.00  0.00           H  
ATOM      9  HA3 GLY A  12      -0.868 -11.281  -2.925  1.00  0.00           H  
ATOM     10  N   GLY A  13       0.014  -8.471  -3.880  1.00  0.00           N  
ATOM     11  CA  GLY A  13       1.319  -8.900  -4.374  1.00  0.00           C  
ATOM     12  C   GLY A  13       1.525  -8.490  -5.807  1.00  0.00           C  
ATOM     13  O   GLY A  13       0.588  -8.527  -6.574  1.00  0.00           O  
ATOM     14  H   GLY A  13      -0.350  -7.639  -4.335  1.00  0.00           H  
ATOM     15  HA2 GLY A  13       2.097  -8.483  -3.731  1.00  0.00           H  
ATOM     16  HA3 GLY A  13       1.386  -9.991  -4.320  1.00  0.00           H  
ATOM     17  N   GLY A  14       2.785  -8.110  -6.222  1.00  0.00           N  
ATOM     18  CA  GLY A  14       3.004  -7.600  -7.563  1.00  0.00           C  
ATOM     19  C   GLY A  14       3.158  -6.102  -7.557  1.00  0.00           C  
ATOM     20  O   GLY A  14       2.250  -5.459  -7.071  1.00  0.00           O  
ATOM     21  H   GLY A  14       3.527  -7.909  -5.551  1.00  0.00           H  
ATOM     22  HA2 GLY A  14       3.856  -8.109  -8.017  1.00  0.00           H  
ATOM     23  HA3 GLY A  14       2.119  -7.861  -8.155  1.00  0.00           H  
ATOM     24  N   GLY A  15       4.260  -5.429  -8.066  1.00  0.00           N  
ATOM     25  CA  GLY A  15       5.425  -5.996  -8.750  1.00  0.00           C  
ATOM     26  C   GLY A  15       5.412  -5.678 -10.222  1.00  0.00           C  
ATOM     27  O   GLY A  15       4.635  -6.267 -10.941  1.00  0.00           O  
ATOM     28  H   GLY A  15       4.213  -4.415  -8.117  1.00  0.00           H  
ATOM     29  HA2 GLY A  15       6.335  -5.608  -8.283  1.00  0.00           H  
ATOM     30  HA3 GLY A  15       5.451  -7.079  -8.618  1.00  0.00           H  
ATOM     31  N   GLY A  16       6.280  -4.722 -10.710  1.00  0.00           N  
ATOM     32  CA  GLY A  16       6.177  -4.244 -12.082  1.00  0.00           C  
ATOM     33  C   GLY A  16       5.803  -2.778 -12.108  1.00  0.00           C  
ATOM     34  O   GLY A  16       4.847  -2.438 -11.462  1.00  0.00           O  
ATOM     35  H   GLY A  16       6.789  -4.101 -10.079  1.00  0.00           H  
ATOM     36  HA2 GLY A  16       7.120  -4.438 -12.602  1.00  0.00           H  
ATOM     37  HA3 GLY A  16       5.397  -4.830 -12.576  1.00  0.00           H  
ATOM     38  N   GLY A  17       6.556  -1.848 -12.848  1.00  0.00           N  
ATOM     39  CA  GLY A  17       7.731  -2.014 -13.566  1.00  0.00           C  
ATOM     40  H   GLY A  17       6.199  -0.878 -12.828  1.00  0.00           H  
ATOM     41  HA2 GLY A  17       8.530  -2.346 -12.881  1.00  0.00           H  
ATOM     42  HA3 GLY A  17       7.648  -2.821 -14.299  1.00  0.00           H  
END

 Bond Distances (Angstroems)
 ---------------------------
C1-O2=1.2044         C1-N3=1.3609         O2-C1=1.2044         N3-C1=1.3609         N3-C4=1.4478         N3-H7=1.0232         
C4-N3=1.4478         C4-C5=1.5054         C4-H8=1.0931         C4-H9=1.0946         C5-C4=1.5054         C5-O6=1.2142         
C5-N10=1.3836        O6-C5=1.2142         H7-N3=1.0232         H8-C4=1.0931         H9-C4=1.0946         N10-C5=1.3836        
N10-C11=1.4596       N10-H14=1.0164       C11-N10=1.4596       C11-C12=1.5048       C11-H15=1.0921       C11-H16=1.0945       
C12-C11=1.5048       C12-O13=1.2123       C12-N17=1.3798       O13-C12=1.2123       H14-N10=1.0164       H15-C11=1.0921       
H16-C11=1.0945       N17-C12=1.3798       N17-C18=1.4510       N17-H21=1.0206       C18-N17=1.4510       C18-C19=1.5064       
C18-H22=1.0919       C18-H23=1.0962       C19-C18=1.5064       C19-O20=1.2143       C19-N24=1.3876       O20-C19=1.2143       
H21-N17=1.0206       H22-C18=1.0919       H23-C18=1.0962       N24-C19=1.3876       N24-C25=1.4649       N24-H28=1.0165       
C25-N24=1.4649       C25-C26=1.5054       C25-H29=1.0942       C25-H30=1.0920       C26-C25=1.5054       C26-O27=1.2123       
C26-N31=1.3804       O27-C26=1.2123       H28-N24=1.0165       H29-C25=1.0942       H30-C25=1.0920       N31-C26=1.3804       
N31-C32=1.4562       N31-H35=1.0208       C32-N31=1.4562       C32-C33=1.5123       C32-H36=1.0940       C32-H37=1.0940       
C33-C32=1.5123       C33-O34=1.2038       C33-N38=1.4071       O34-C33=1.2038       H35-N31=1.0208       H36-C32=1.0940       
H37-C32=1.0940       N38-C33=1.4071       N38-C39=1.3871       N38-H40=1.0334       C39-N38=1.3871       C39-H41=1.1031       
C39-H42=1.0944       H40-N38=1.0334       H41-C39=1.1031       H42-C39=1.0944       
 C  H  Rav=1.0945 sigma=0.0029  Rmin=1.0919  Rmax=1.1031    12
 C  C  Rav=1.5068 sigma=0.0028  Rmin=1.5048  Rmax=1.5123     5
 N  H  Rav=1.0218 sigma=0.0057  Rmin=1.0164  Rmax=1.0334     6
 N  C  Rav=1.4138 sigma=0.0371  Rmin=1.3609  Rmax=1.4649    12
 O  C  Rav=1.2102 sigma=0.0044  Rmin=1.2038  Rmax=1.2143     6

 selected bond angles (degree)
 --------------------
N3-C1-O2=123.48                C4-N3-C1=120.05                H7-N3-C1=121.57                H7-N3-C4=114.28                
C5-C4-N3=110.88                H8-C4-N3=108.48                H8-C4-C5=111.84                H9-C4-N3=107.76                
H9-C4-C5=109.61                H9-C4-H8=108.15                O6-C5-C4=117.78                N10-C5-C4=121.84               
N10-C5-O6=120.37               C11-N10-C5=126.47              H14-N10-C5=119.07              H14-N10-C11=114.17             

 selected dihedral angles (degree)
 ---------------------------------
C4-N3-C1-O2=  6.87            H7-N3-C1-O2=162.81            C5-C4-N3-C1=112.92            C5-C4-N3-H7=315.32            
H8-C4-N3-C1=236.09            H8-C4-N3-H7= 78.49            H9-C4-N3-C1=352.96            H9-C4-N3-H7=195.36            
O6-C5-C4-N3=321.63            O6-C5-C4-H8=200.41            O6-C5-C4-H9= 80.48            N10-C5-C4-N3=142.45           
N10-C5-C4-H8= 21.23           N10-C5-C4-H9=261.30           C11-N10-C5-C4=359.28          C11-N10-C5-O6=180.11          
H14-N10-C5-C4=172.74          H14-N10-C5-O6=353.57          
           -------------------------------------------------
          |                Final Singlepoint                |
           -------------------------------------------------
         :::::::::::::::::::::::::::::::::::::::::::::::::::::
         ::                     SUMMARY                     ::
         :::::::::::::::::::::::::::::::::::::::::::::::::::::
         :: total energy              -7.498720792680 Eh    ::
         :: total w/o Gsolv           -7.449826823216 Eh    ::
         :: total w/o Gsasa/hb        -7.492677687450 Eh    ::
         :: gradient norm              0.000298869351 Eh/a0 ::
         ::.................................................::
         :: bond energy               -7.557912743640 Eh    ::
         :: angle energy               0.033284887009 Eh    ::
         :: torsion energy             0.025392740256 Eh    ::
         :: repulsion energy           0.461598827679 Eh    ::
         :: electrostat energy        -0.377472255402 Eh    ::
         :: dispersion energy         -0.028166758092 Eh    ::
         :: HB energy                 -0.000672538847 Eh    ::
         :: XB energy                  0.000000000000 Eh    ::
         :: bonded atm energy         -0.009566581339 Eh    ::
         :: external energy            0.000000000000 Eh    ::
         :: -> Gsolv                  -0.048893969465 Eh    ::
         ::    -> Gborn               -0.042850864234 Eh    ::
         ::    -> Gsasa                0.011705563870 Eh    ::
         ::    -> Ghb                 -0.018113608355 Eh    ::
         ::    -> Gshift               0.000364939255 Eh    ::
         :: add. restraining           0.003687599161 Eh    ::
         :: total charge               0.000000000000 e     ::
         ::.................................................::
         :: atomisation energy         0.000000000000 Eh    ::
         :::::::::::::::::::::::::::::::::::::::::::::::::::::

           -------------------------------------------------
          |                Property Printout                |
           -------------------------------------------------
           -------------------------------------------------
          |                Geometry Summary                 |
           -------------------------------------------------

      molecular mass/u    :      342.3084131
   center of mass at/Å    :        2.6606040      -6.8969489      -7.1199240
  moments of inertia/u·Å² :        0.4324513E+03   0.1108708E+05   0.1124102E+05
rotational constants/cm⁻¹ :        0.3898158E-01   0.1520476E-02   0.1499653E-02

 * 34 selected distances

     #   Z          #   Z                                           value/Å
     1   6  C       3   7  N                                      1.3608892
     3   7  N       4   6  C                                      1.4477863
     5   6  C       6   8  O                                      1.2141915
     3   7  N       7   1  H                                      1.0231914
     4   6  C       8   1  H                                      1.0931139
     4   6  C       9   1  H                                      1.0946126
     5   6  C      10   7  N                                      1.3836079
    10   7  N      11   6  C                                      1.4596364
    12   6  C      13   8  O                                      1.2122855
    10   7  N      14   1  H                                      1.0163624 (min)
    11   6  C      15   1  H                                      1.0920683
    11   6  C      16   1  H                                      1.0945323
    12   6  C      17   7  N                                      1.3797909
    17   7  N      18   6  C                                      1.4509984
    19   6  C      20   8  O                                      1.2143408
    17   7  N      21   1  H                                      1.0205596
    18   6  C      22   1  H                                      1.0918883
    18   6  C      23   1  H                                      1.0961574
    19   6  C      24   7  N                                      1.3875900
    24   7  N      25   6  C                                      1.4648690 (max)
    26   6  C      27   8  O                                      1.2122632
    24   7  N      28   1  H                                      1.0165292
    25   6  C      29   1  H                                      1.0941865
    25   6  C      30   1  H                                      1.0920430
    26   6  C      31   7  N                                      1.3803712
    31   7  N      32   6  C                                      1.4561995
    33   6  C      34   8  O                                      1.2037585
    31   7  N      35   1  H                                      1.0207980
    32   6  C      36   1  H                                      1.0939999
    32   6  C      37   1  H                                      1.0939671
    33   6  C      38   7  N                                      1.4071013
    38   7  N      39   6  C                                      1.3871111
    38   7  N      40   1  H                                      1.0333829
    39   6  C      42   1  H                                      1.0944359

 * 4 distinct bonds (by element types)

   Z      Z             #   av. dist./Å        max./Å        min./Å
   1 H    6 C          11     1.0937277     1.0961574     1.0918883
   1 H    7 N           6     1.0218039     1.0333829     1.0163624
   6 C    7 N          12     1.4138293     1.4648690     1.3608892
   6 C    8 O           5     1.2113679     1.2143408     1.2037585


optimized geometry written to: xtbopt.pdb


           -------------------------------------------------
          | TOTAL ENERGY               -7.498720792680 Eh   |
          | GRADIENT NORM               0.000298869351 Eh/α |
           -------------------------------------------------
########################################################################
[WARNING] Runtime exception occurred
-1- gfnff_setup: Could not read topology file.
########################################################################

------------------------------------------------------------------------
 unit  open   action     filename
   10 false : read       xtb_settings.inp
   10 false : read       substructure_47.pdb
   10 false : read       xtb_settings.inp
   10 false : written    gfnff_topo
   10 false : written    gfnff_adjacency
   10 false : written    gfnff_charges
   10 false : deleted    .xtboptok
   10 false : replaced   xtbopt.log
   11 false : created    .xtboptok
   11 false : replaced   gfnff_charges
   10 false : replaced   xtbopt.pdb

------------------------------------------------------------------------
 * finished run on 2025/05/27 at 09:37:50.679     
------------------------------------------------------------------------
 total:
 * wall-time:     0 d,  0 h,  0 min,  0.016 sec
 *  cpu-time:     0 d,  0 h,  0 min,  0.016 sec
 * ratio c/w:     0.999 speedup
 SCF:
 * wall-time:     0 d,  0 h,  0 min,  0.001 sec
 *  cpu-time:     0 d,  0 h,  0 min,  0.001 sec
 * ratio c/w:     0.999 speedup
 ANC optimizer:
 * wall-time:     0 d,  0 h,  0 min,  0.012 sec
 *  cpu-time:     0 d,  0 h,  0 min,  0.012 sec
 * ratio c/w:     0.999 speedup

