      -----------------------------------------------------------      
     |                   =====================                   |     
     |                           x T B                           |     
     |                   =====================                   |     
     |                         S. Grimme                         |     
     |          Mulliken Center for Theoretical Chemistry        |     
     |                    University of Bonn                     |     
      -----------------------------------------------------------      

   * xtb version 6.6.1 (8d0f1dd) compiled by 'conda@1efc2f54142f' on 2023-08-01

   xtb is free software: you can redistribute it and/or modify it under
   the terms of the GNU Lesser General Public License as published by
   the Free Software Foundation, either version 3 of the License, or
   (at your option) any later version.
   
   xtb is distributed in the hope that it will be useful,
   but WITHOUT ANY WARRANTY; without even the implied warranty of
   MERCHANTABILITY or FITNESS FOR A PARTICULAR PURPOSE.  See the
   GNU Lesser General Public License for more details.
   
   Cite this work as:
   * C. Bannwarth, E. Caldeweyher, S. Ehlert, A. Hansen, P. Pracht,
     J. Seibert, S. Spicher, S. Grimme, WIREs Comput. Mol. Sci., 2020, 11,
     e01493. DOI: 10.1002/wcms.1493
   
   for GFN2-xTB:
   * C. Bannwarth, S. Ehlert and S. Grimme., J. Chem. Theory Comput., 2019,
     15, 1652-1671. DOI: 10.1021/acs.jctc.8b01176
   for GFN1-xTB:
   * S. Grimme, C. Bannwarth, P. Shushkov, J. Chem. Theory Comput., 2017,
     13, 1989-2009. DOI: 10.1021/acs.jctc.7b00118
   for GFN0-xTB:
   * P. Pracht, E. Caldeweyher, S. Ehlert, S. Grimme, ChemRxiv, 2019, preprint.
     DOI: 10.26434/chemrxiv.8326202.v1
   for GFN-FF:
   * S. Spicher and S. Grimme, Angew. Chem. Int. Ed., 2020, 59, 15665-15673.
     DOI: 10.1002/anie.202004239
   
   for ALPB and GBSA implicit solvation:
   * S. Ehlert, M. Stahn, S. Spicher, S. Grimme, J. Chem. Theory Comput.,
     2021, 17, 4250-4261. DOI: 10.1021/acs.jctc.1c00471
   
   for DFT-D4:
   * E. Caldeweyher, C. Bannwarth and S. Grimme, J. Chem. Phys., 2017,
     147, 034112. DOI: 10.1063/1.4993215
   * E. Caldeweyher, S. Ehlert, A. Hansen, H. Neugebauer, S. Spicher,
     C. Bannwarth and S. Grimme, J. Chem. Phys., 2019, 150, 154122.
     DOI: 10.1063/1.5090222
   * E. Caldeweyher, J.-M. Mewes, S. Ehlert and S. Grimme, Phys. Chem. Chem. Phys.
     2020, 22, 8499-8512. DOI: 10.1039/D0CP00502A
   
   for sTDA-xTB:
   * S. Grimme and C. Bannwarth, J. Chem. Phys., 2016, 145, 054103.
     DOI: 10.1063/1.4959605
   
   in the mass-spec context:
   * V. Asgeirsson, C. Bauer and S. Grimme, Chem. Sci., 2017, 8, 4879.
     DOI: 10.1039/c7sc00601b
   * J. Koopman and S. Grimme, ACS Omega 2019, 4, 12, 15120-15133.
     DOI: 10.1021/acsomega.9b02011
   
   for metadynamics refer to:
   * S. Grimme, J. Chem. Theory Comput., 2019, 155, 2847-2862
     DOI: 10.1021/acs.jctc.9b00143
   
   for SPH calculations refer to:
   * S. Spicher and S. Grimme, J. Chem. Theory Comput., 2021, 17, 1701-1714
     DOI: 10.1021/acs.jctc.0c01306
   
   with help from (in alphabetical order)
   P. Atkinson, C. Bannwarth, F. Bohle, G. Brandenburg, E. Caldeweyher
   M. Checinski, S. Dohm, S. Ehlert, S. Ehrlich, I. Gerasimov, C. Hölzer
   A. Katbashev, J. Koopman, C. Lavigne, S. Lehtola, F. März, M. Müller,
   F. Musil, H. Neugebauer, J. Pisarek, C. Plett, P. Pracht, F. Pultar,
   J. Seibert, P. Shushkov, S. Spicher, M. Stahn, M. Steiner, T. Strunk,
   J. Stückrath, T. Rose, and J. Unsleber
   
 * started run on 2025/05/27 at 09:37:54.674     

           -------------------------------------------------
          |                Calculation Setup                |
           -------------------------------------------------

          program call               : xtb substructure_63.pdb --gfnff --input xtb_settings.inp --opt vtight --alpb water --verbose
          coordinate file            : substructure_63.pdb
          xtbhome directory          : /home/dargen3
          path for xtb               : /home/dargen3
          xcontrol input file        : xtb_settings.inp
          omp threads                :                     1

$$$$$$$$$$$$$$$$$$$$$$$$$$$$$$$$$$$$$$$$$$$$$$$$$$$$$$$$$$$$$$$$$$$$$$$$
 CONSTRAINTS & SCANS: DEBUG SECTION
$$$$$$$$$$$$$$$$$$$$$$$$$$$$$$$$$$$$$$$$$$$$$$$$$$$$$$$$$$$$$$$$$$$$$$$$
   ID    Z sym.   atoms
    1    6  C     1, 4, 5, 11, 12, 18, 19, 25, 26, 32, 33, 39
    2    8  O     2, 6, 13, 20, 27, 34
    3    7  N     3, 10, 17, 24, 31, 38
    4    1  H     7-9, 14-16, 21-23, 28-30, 35-37, 40-42
> constrain
-> atoms: 1, 2, 3, 4, 5, 6, 7, 8, 9, 10, 11, 12, 13, 14, 15, 16, 18, 24, 25, 26, 27, 28, 29, 30, 31, 32, 33, 34, 35, 36, 37, 38, 39, 40, 41, 42
--> 1: 1
--> 2: 2
--> 3: 3
--> 4: 4
--> 5: 5
--> 6: 6
--> 7: 7
--> 8: 8
--> 9: 9
--> 10: 10
--> 11: 11
--> 12: 12
--> 13: 13
--> 14: 14
--> 15: 15
--> 16: 16
--> 17: 18
--> 18: 24
--> 19: 25
--> 20: 26
--> 21: 27
--> 22: 28
--> 23: 29
--> 24: 30
--> 25: 31
--> 26: 32
--> 27: 33
--> 28: 34
--> 29: 35
--> 30: 36
--> 31: 37
--> 32: 38
--> 33: 39
--> 34: 40
--> 35: 41
--> 36: 42
-> force constant=1.0
$$$$$$$$$$$$$$$$$$$$$$$$$$$$$$$$$$$$$$$$$$$$$$$$$$$$$$$$$$$$$$$$$$$$$$$$
           -------------------------------------------------
          |                   Constraints                   |
           -------------------------------------------------

 * 36 constrained atom positions
   positions refering to input geometry

     #   Z                                   position/Å      displ./Å
     1   6 C     -1.7360002   -11.4500011    -0.6060001     0.0000000
     2   8 O     -2.1470002   -12.3170011    -1.3470001     0.0000000
     3   7 N     -0.7800001   -10.5410010    -0.9990001     0.0000000
     4   6 C     -0.3730000   -10.4770010    -2.3880002     0.0000000
     5   6 C     -0.7950001    -9.1570008    -2.9930003     0.0000000
     6   8 O     -1.8780002    -8.7080008    -2.6760002     0.0000000
     7   1 H     -0.6060001    -9.6920009    -0.4600000     0.0000000
     8   1 H      0.7090001   -10.6110010    -2.4360002     0.0000000
     9   1 H     -0.8540001   -11.2940010    -2.9170003     0.0000000
    10   7 N      0.0020000    -8.4850008    -3.9000004     0.0000000
    11   6 C      1.3240001    -8.8870008    -4.3620004     0.0000000
    12   6 C      1.5320001    -8.5060008    -5.8110005     0.0000000
    13   8 O      0.6030001    -8.5740008    -6.5860006     0.0000000
    14   1 H     -0.3690000    -7.6630007    -4.3690004     0.0000000
    15   1 H      2.0840002    -8.4620008    -3.7300003     0.0000000
    16   1 H      1.4010001    -9.9890009    -4.3060004     0.0000000
    18   6 C      3.0050003    -7.6070007    -7.5660007     0.0000000
    24   7 N      4.2560004    -5.4290005    -8.0720007     0.0000000
    25   6 C      5.4280005    -5.9890006    -8.7440008     0.0000000
    26   6 C      5.4150005    -5.6790005   -10.2210009     0.0000000
    27   8 O      4.6360004    -6.2670006   -10.9400010     0.0000000
    28   1 H      4.2030004    -4.4150004    -8.1340008     0.0000000
    29   1 H      6.3330006    -5.6040005    -8.2810008     0.0000000
    30   1 H      5.4520005    -7.0770007    -8.6160008     0.0000000
    31   7 N      6.2870006    -4.7260004   -10.7110010     0.0000000
    32   6 C      6.1780006    -4.2520004   -12.0880011     0.0000000
    33   6 C      5.8160005    -2.7840003   -12.1060011     0.0000000
    34   8 O      4.8600005    -2.4360002   -11.4450011     0.0000000
    35   1 H      6.7960006    -4.1060004   -10.0810009     0.0000000
    36   1 H      7.1220007    -4.4380004   -12.6040012     0.0000000
    37   1 H      5.3960005    -4.8270004   -12.5730012     0.0000000
    38   7 N      6.5130006    -1.8410002   -12.8450012     0.0000000
    39   6 C      7.7600007    -2.0220002   -13.5740013     0.0000000
    40   1 H      6.2200006    -0.8620001   -12.8000012     0.0000000
    41   1 H      8.5380008    -2.3470002   -12.8720012     0.0000000
    42   1 H      7.6210007    -2.8280003   -14.3140013     0.0000000

     applying 630 atom pairwise harmonic potentials
       applied force constant per pair:     0.0285714
     effective force constant per atom:     1.0000000
         constraining energy/grad norm:     0.0000000     0.0000000

     total constraint energy/grad norm:     0.0000000     0.0000000

          charge from pdb residues: 0

          entering GFN-FF setup routine... 42

          ==================== Thresholds ====================
          CN  :   150.00000
          rep :   500.00000
          disp:  2500.00000
          HB1 :   250.00000
          HB2 :   450.00000

          Pauling EN used:
          Z : 1  EN :  2.20
          Z : 6  EN :  2.55
          Z : 7  EN :  3.04
          Z : 8  EN :  3.44
          electric field strengths (au): 0.000

           ------------------------------------------------- 
          |           Force Field Initialization            |
           ------------------------------------------------- 

          distances ...
          ----------------------------------------
          generating topology and atomic info file ...
          pair mat ...
          computing topology distances matrix with Floyd-Warshall algo ...
          making topology EEQ charges ...
          #fragments for EEQ constrain from pdb file: 7
          ----------------------------------------
          generating topology and atomic info file ...
          pair mat ...
          computing topology distances matrix with Floyd-Warshall algo ...
          making topology EEQ charges ...
          #fragments for EEQ constrain from pdb file: 7
          rings ...
          # BATM   334
          # H in HB   18
          doing iterative Hueckel for 6 subsystem(s) ...
          iterative Hueckel run to get P ...
Hueckel system :  1 charge :   0 ndim/Nel :    3    3   eps(HOMO/LUMO)   -0.953545   -0.953545
Hueckel system :  2 charge :   0 ndim/Nel :    3    4   eps(HOMO/LUMO)   -0.911563   -0.911563
Hueckel system :  3 charge :   0 ndim/Nel :    3    4   eps(HOMO/LUMO)   -0.911539   -0.911539
Hueckel system :  4 charge :   0 ndim/Nel :    3    4   eps(HOMO/LUMO)   -0.912604   -0.912604
Hueckel system :  5 charge :   0 ndim/Nel :    3    4   eps(HOMO/LUMO)   -0.910014   -0.910014
Hueckel system :  6 charge :   0 ndim/Nel :    4    5   eps(HOMO/LUMO)    1.305314    1.305314
WARNING: probably wrong pi occupation for system 6. Second attempt with Nel=Nel-1!
 at,nb,topo%hyb,Npiel:          33  C             3           2           1
 at,nb,topo%hyb,Npiel:          34  O             1           2           1
 at,nb,topo%hyb,Npiel:          38  N             3           3           2
 at,nb,topo%hyb,Npiel:          39  C             3           2           1

          eigenvalues
 #    :           1          2          3          4
 occ. :        2.000      1.987      0.013      0.000
 eps  :        -4.349     -2.183      1.305      3.389
Hueckel system :  6 charge :   0 ndim/Nel :    4    4   eps(HOMO/LUMO)   -2.182830    1.305314

  atom   neighbors  erfCN metchar sp-hybrid imet pi  qest     coordinates
    1   C      2    1.93   0.00        -2    0    1   0.120   -3.280565  -21.637364   -1.145174
    2   O      1    0.98   0.00         2    0    1  -0.120   -4.057242  -23.275757   -2.545461
    3   N      3    2.79   0.00        -3    0    1  -0.166   -1.473986  -19.919603   -1.887836
    4   C      4    3.49   0.00         3    0    0   0.005   -0.704868  -19.798661   -4.512666
    5   C      3    2.79   0.00         2    0    1   0.174   -1.502332  -17.304222   -5.655950
    6   O      1    0.98   0.00         2    0    1  -0.352   -3.548906  -16.455735   -5.056907
    7   H      1    0.98   0.00         0    0    0   0.153   -1.145174  -18.315226   -0.869274
    8   H      1    0.97   0.00         0    0    0   0.093    1.339816  -20.051884   -4.603373
    9   H      1    0.97   0.00         0    0    0   0.093   -1.613826  -21.342567   -5.512331
   10   N      3    2.79   0.00        -3    0    1  -0.168    0.003779  -16.034326   -7.369932
   11   C      4    3.49   0.00         3    0    0   0.006    2.501997  -16.793996   -8.242985
   12   C      3    2.80   0.00         2    0    1   0.174    2.895060  -16.074010  -10.981199
   13   O      1    0.98   0.00         2    0    1  -0.352    1.139505  -16.202512  -12.445736
   14   H      1    0.98   0.00         0    0    0   0.155   -0.697309  -14.480971   -8.256213
   15   H      1    0.97   0.00         0    0    0   0.092    3.938189  -15.990862   -7.048678
   16   H      1    0.97   0.01         0    0    0   0.092    2.647506  -18.876474   -8.137161
   17   N      3    2.79   0.00        -3    0    1  -0.168    5.266667  -15.308671  -11.752207
   18   C      4    3.49   0.00         3    0    0   0.006    5.678627  -14.375147  -14.297668
   19   C      3    2.79   0.00         2    0    1   0.175    5.956417  -11.529219  -14.299558
   20   O      1    0.98   0.00         2    0    1  -0.353    4.229207  -10.314125  -13.405717
   21   H      1    0.98   0.00         0    0    0   0.154    6.648057  -14.883483  -10.474752
   22   H      1    0.97   0.00         0    0    0   0.093    7.292453  -15.323789  -15.140486
   23   H      1    0.97   0.00         0    0    0   0.093    4.008109  -14.870255  -15.410717
   24   N      3    2.79   0.00        -3    0    1  -0.165    8.042674  -10.259323  -15.253869
   25   C      4    3.49   0.00         3    0    0   0.004   10.257433  -11.317570  -16.523765
   26   C      3    2.79   0.00         2    0    1   0.178   10.232867  -10.731755  -19.314891
   27   O      1    0.98   0.00         2    0    1  -0.354    8.760770  -11.842914  -20.673604
   28   H      1    0.98   0.00         0    0    0   0.150    7.942519   -8.343141  -15.371032
   29   H      1    0.97   0.00         0    0    0   0.093   11.967636  -10.590025  -15.648822
   30   H      1    0.97   0.00         0    0    0   0.093   10.302787  -13.373592  -16.281880
   31   N      3    2.79   0.00        -3    0    1  -0.170   11.880708   -8.930846  -20.240857
   32   C      4    3.49   0.00         3    0    0   0.006   11.674728   -8.035115  -22.843009
   33   C      3    2.79   0.00         2    0    1   0.195   10.990647   -5.260998  -22.877024
   34   O      1    0.98   0.00         2    0    1  -0.357    9.184069   -4.603373  -21.627915
   35   H      1    0.98   0.00         0    0    0   0.147   12.842579   -7.759215  -19.050329
   36   H      1    0.97   0.00         0    0    0   0.090   13.458629   -8.386605  -23.818108
   37   H      1    0.97   0.00         0    0    0   0.090   10.196962   -9.121708  -23.759527
   38   N      3    2.79   0.00         3    0    1  -0.226   12.307786   -3.478986  -24.273532
   39   C      3    2.78   0.00         2    0    1  -0.008   14.664275   -3.821026  -25.651142
   40   H      1    0.98   0.00         0    0    0   0.123   11.754096   -1.628944  -24.188494
   41   H      1    0.97   0.00         0    0    0   0.055   16.134482   -4.435187  -24.324555
   42   H      1    0.97   0.01         0    0    0   0.055   14.401603   -5.344145  -27.049540

molecular fragment  # atoms  topo charge
       1             2            -0.000
       2             7            -0.000
       3             7            -0.000
       4             7            -0.000
       5             7             0.000
       6             7            -0.000
       7             5             0.000


          #atoms :   42
          #bonds :   41

 bond atoms        type  in ring    R      R0    piBO    fqq  kbond(tot)  alp
 O  C     2    1      2    0     1.212   0.996   0.799   1.047  -0.252   0.584
 N  C     3    1      2    0     1.376   1.215   0.504   1.047  -0.235   0.524
 C  N     4    3      1    0     1.449   1.326 -99.000   1.033  -0.151   0.496
 C  C     5    4      1    0     1.512   1.332 -99.000   1.013  -0.162   0.475
 O  C     6    5      2    0     1.214   1.031   0.856   1.047  -0.262   0.584
 H  N     7    3      1    0     1.021   0.890 -99.000   1.047  -0.176   0.551
 H  C     8    4      1    0     1.091   0.977 -99.000   1.018  -0.164   0.482
 H  C     9    4      1    0     1.086   0.977 -99.000   1.018  -0.164   0.482
 N  C    10    5      2    0     1.382   1.263   0.503   1.047  -0.234   0.524
 C  N    11   10      1    0     1.457   1.326 -99.000   1.035  -0.151   0.496
 C  C    12   11      1    0     1.513   1.332 -99.000   1.011  -0.162   0.475
 O  C    13   12      2    0     1.212   1.031   0.856   1.047  -0.262   0.584
 H  N    14   10      1    0     1.016   0.890 -99.000   1.047  -0.176   0.551
 H  C    15   11      1    0     1.076   0.976 -99.000   1.017  -0.164   0.482
 H  C    16   11      1    0     1.106   0.976 -99.000   1.017  -0.164   0.482
 N  C    17   12      2    0     1.380   1.263   0.503   1.047  -0.234   0.524
 C  N    18   17      1    0     1.451   1.326 -99.000   1.034  -0.151   0.496
 C  C    19   18      1    0     1.513   1.332 -99.000   1.012  -0.162   0.475
 O  C    20   19      2    0     1.213   1.031   0.856   1.047  -0.262   0.584
 H  N    21   17      1    0     1.021   0.890 -99.000   1.047  -0.176   0.551
 H  C    22   18      1    0     1.086   0.977 -99.000   1.017  -0.164   0.482
 H  C    23   18      1    0     1.094   0.976 -99.000   1.017  -0.164   0.482
 N  C    24   19      2    0     1.388   1.263   0.503   1.047  -0.234   0.524
 C  N    25   24      1    0     1.462   1.325 -99.000   1.031  -0.151   0.496
 C  C    26   25      1    0     1.509   1.332 -99.000   1.015  -0.163   0.475
 O  C    27   26      2    0     1.212   1.031   0.856   1.047  -0.262   0.584
 H  N    28   24      1    0     1.017   0.890 -99.000   1.047  -0.176   0.551
 H  C    29   25      1    0     1.087   0.976 -99.000   1.019  -0.164   0.482
 H  C    30   25      1    0     1.096   0.976 -99.000   1.019  -0.164   0.482
 N  C    31   26      2    0     1.382   1.263   0.504   1.047  -0.234   0.524
 C  N    32   31      1    0     1.460   1.326 -99.000   1.034  -0.151   0.496
 C  C    33   32      1    0     1.512   1.332 -99.000   1.011  -0.162   0.475
 O  C    34   33      2    0     1.213   1.018   0.930   1.047  -0.274   0.584
 H  N    35   31      1    0     1.020   0.890 -99.000   1.047  -0.176   0.551
 H  C    36   32      1    0     1.092   0.976 -99.000   1.018  -0.164   0.482
 H  C    37   32      1    0     1.085   0.977 -99.000   1.018  -0.164   0.482
 N  C    38   33      2    0     1.386   1.291   0.346   1.047  -0.203   0.524
 C  N    39   38      2    0     1.456   1.189   0.906   1.006  -0.302   0.524
 H  N    40   38      1    0     1.023   0.890 -99.000   1.047  -0.176   0.551
 H  C    41   39      1    0     1.097   0.949 -99.000   1.029  -0.179   0.490
 H  C    42   39      1    0     1.103   0.949 -99.000   1.029  -0.179   0.490
          #angl  :   67

 angle atoms        phi0    phi      FC  pi rings
    1    3    2   145.000 122.224   0.082 F   0
    3    4    1   115.000 119.868   0.411 F   0
    3    7    1   115.000 121.130   0.335 F   0
    3    7    4   104.000 114.941   0.182 F   0
    4    5    3   109.500 110.105   0.307 F   0
    4    8    3   109.500 108.377   0.253 F   0
    4    8    5   109.500 111.487   0.251 F   0
    4    9    3   109.500 108.025   0.253 F   0
    4    9    5   109.500 109.775   0.251 F   0
    4    9    8   108.600 108.991   0.209 F   0
    5    6    4   120.000 117.850   0.178 F   0
    5   10    4   120.000 121.748   0.243 F   0
    5   10    6   120.000 120.389   0.177 F   0
   10   11    5   115.000 126.677   0.409 F   0
   10   14    5   115.000 119.051   0.333 F   0
   10   14   11   104.000 114.078   0.182 F   0
   11   12   10   109.500 111.041   0.307 F   0
   11   15   10   109.500 110.223   0.253 F   0
   11   15   12   109.500 111.473   0.252 F   0
   11   16   10   109.500 108.784   0.253 F   0
   11   16   12   109.500 106.850   0.252 F   0
   11   16   15   108.600 108.338   0.209 F   0
   12   13   11   120.000 119.546   0.178 F   0
   12   17   11   120.000 118.819   0.243 F   0
   12   17   13   120.000 121.631   0.177 F   0
   17   18   12   115.000 120.717   0.409 F   0
   17   21   12   115.000 121.333   0.333 F   0
   17   21   18   104.000 115.600   0.182 F   0
   18   19   17   109.500 110.733   0.307 F   0
   18   22   17   109.500 109.990   0.253 F   0
   18   22   19   109.500 112.536   0.251 F   0
   18   23   17   109.500 107.266   0.253 F   0
   18   23   19   109.500 108.450   0.251 F   0
   18   23   22   108.600 107.667   0.209 F   0
   19   20   18   120.000 116.997   0.178 F   0
   19   24   18   120.000 124.024   0.243 F   0
   19   24   20   120.000 118.980   0.176 F   0
   24   25   19   115.000 128.272   0.409 F   0
   24   28   19   115.000 117.611   0.334 F   0
   24   28   25   104.000 113.293   0.182 F   0
   25   26   24   109.500 111.354   0.307 F   0
   25   29   24   109.500 109.625   0.253 F   0
   25   29   26   109.500 110.564   0.251 F   0
   25   30   24   109.500 110.126   0.253 F   0
   25   30   26   109.500 108.569   0.251 F   0
   25   30   29   108.600 106.480   0.209 F   0
   26   27   25   120.000 119.101   0.178 F   0
   26   31   25   120.000 118.904   0.242 F   0
   26   31   27   120.000 121.994   0.176 F   0
   31   32   26   115.000 120.744   0.409 F   0
   31   35   26   115.000 121.011   0.333 F   0
   31   35   32   104.000 114.983   0.182 F   0
   32   33   31   109.500 110.133   0.307 F   0
   32   36   31   109.500 109.015   0.253 F   0
   32   36   33   109.500 111.517   0.251 F   0
   32   37   31   109.500 107.653   0.253 F   0
   32   37   33   109.500 109.671   0.251 F   0
   32   37   36   108.600 108.760   0.209 F   0
   33   34   32   120.000 117.428   0.177 F   0
   33   38   32   120.000 123.125   0.241 F   0
   33   38   34   120.000 119.444   0.174 F   0
   38   39   33   113.000 127.818   0.042 F   0
   38   40   33   113.000 118.924   0.211 F   0
   38   40   39   113.000 112.730   0.105 F   0
   39   41   38   120.000 108.896   0.204 F   0
   39   42   38   120.000 108.595   0.204 F   0
   39   42   41   120.000 107.589   0.167 F   0
 torsion atoms        nrot   rings    phi0    phi      FC
    3    1    4    2   2      0     180.000   8.926   0.765
    3    1    7    2   2      0     180.000 165.120   1.135
    4    3    5    1   3      0     180.000 113.576   0.024
    4    3    5    7   3      0     180.000  44.025   0.032
    4    3    8    1   3      0     180.000 124.242   0.034
    4    3    8    7   3      0     180.000  78.157   0.045
    4    3    9    1   3      0     180.000   6.291   0.034
    4    3    9    7   3      0     180.000 163.892   0.045
    5    4    6    3   3      0     180.000  39.029   0.066
    5    4    6    8   3      0     180.000 159.352   0.115
    5    4    6    9   3      0     180.000  79.772   0.115
    5    4   10    3   3      0     180.000 142.310   0.041
    5    4   10    8   3      0     180.000  21.986   0.072
    5    4   10    9   3      0     180.000  98.889   0.072
   10    5   11    4   2      0     180.000   2.222   0.614
   10    5   11    6   2      0     180.000 179.149   0.833
   10    5   14    4   2      0     180.000 172.402   0.911
   10    5   14    6   2      0     180.000   6.226   1.235
   11   10   12    5   3      0     180.000 145.396   0.022
   11   10   12   14   3      0     180.000  29.457   0.032
   11   10   15    5   3      0     180.000  90.569   0.032
   11   10   15   14   3      0     180.000  94.577   0.045
   11   10   16    5   3      0     180.000  28.080   0.032
   11   10   16   14   3      0     180.000 146.773   0.045
   12   11   13   10   3      0     180.000  36.296   0.066
   12   11   13   15   3      0     180.000 159.617   0.115
   12   11   13   16   3      0     180.000  82.193   0.115
   12   11   17   10   3      0     180.000 144.369   0.041
   12   11   17   15   3      0     180.000  21.049   0.072
   12   11   17   16   3      0     180.000  97.141   0.072
   17   12   18   11   2      0     180.000 174.172   0.614
   17   12   18   13   2      0     180.000   6.508   0.832
   17   12   21   11   2      0     180.000  12.344   0.911
   17   12   21   13   2      0     180.000 168.336   1.235
   18   17   19   12   3      0     180.000 104.381   0.022
   18   17   19   21   3      0     180.000  58.438   0.032
   18   17   22   12   3      0     180.000 130.606   0.032
   18   17   22   21   3      0     180.000  66.575   0.045
   18   17   23   12   3      0     180.000  13.783   0.032
   18   17   23   21   3      0     180.000 176.602   0.045
   19   18   20   17   3      0     180.000  56.885   0.066
   19   18   20   22   3      0     180.000 179.555   0.115
   19   18   20   23   3      0     180.000  60.556   0.115
   19   18   24   17   3      0     180.000 123.171   0.041
   19   18   24   22   3      0     180.000   0.389   0.072
   19   18   24   23   3      0     180.000 119.388   0.072
   24   19   25   18   2      0     180.000   3.426   0.612
   24   19   25   20   2      0     180.000 176.517   0.830
   24   19   28   18   2      0     180.000 172.256   0.908
   24   19   28   20   2      0     180.000   7.687   1.231
   25   24   26   19   3      0     180.000 107.777   0.022
   25   24   26   28   3      0     180.000  61.451   0.032
   25   24   29   19   3      0     180.000 129.551   0.032
   25   24   29   28   3      0     180.000  61.221   0.045
   25   24   30   19   3      0     180.000  12.716   0.032
   25   24   30   28   3      0     180.000 178.056   0.045
   26   25   27   24   3      0     180.000  73.303   0.066
   26   25   27   29   3      0     180.000 164.567   0.115
   26   25   27   30   3      0     180.000  48.102   0.115
   26   25   31   24   3      0     180.000 106.286   0.041
   26   25   31   29   3      0     180.000  15.843   0.072
   26   25   31   30   3      0     180.000 132.309   0.072
   31   26   32   25   2      0     180.000 170.932   0.620
   31   26   32   27   2      0     180.000   8.645   0.840
   31   26   35   25   2      0     180.000  12.355   0.920
   31   26   35   27   2      0     180.000 167.222   1.247
   32   31   33   26   3      0     180.000 115.457   0.022
   32   31   33   35   3      0     180.000  44.339   0.032
   32   31   36   26   3      0     180.000 121.892   0.032
   32   31   36   35   3      0     180.000  78.312   0.045
   32   31   37   26   3      0     180.000   4.075   0.032
   32   31   37   35   3      0     180.000 163.871   0.045
   33   32   34   31   3      0     180.000  51.361   0.066
   33   32   34   36   3      0     180.000 172.528   0.115
   33   32   34   37   3      0     180.000  66.937   0.115
   33   32   38   31   3      0     180.000 129.289   0.041
   33   32   38   36   3      0     180.000   8.122   0.072
   33   32   38   37   3      0     180.000 112.413   0.072
   38   33   39   32   2      0     180.000   8.151   0.343
   38   33   39   34   2      0     180.000 172.512   0.465
   38   33   40   32   2      0     180.000 179.172   0.489
   38   33   40   34   2      0     180.000   1.491   0.663
   39   38   41   33   2      0     180.000  59.025   1.385
   39   38   41   40   2      0     180.000 112.458   1.974
   39   38   42   33   2      0     180.000  57.857   1.385
   39   38   42   40   2      0     180.000 130.660   1.974
 out-of-plane atoms          phi0    phi      FC
    3    7    1    4          0.000  20.489   0.133
    5    6   10    4          0.000  -1.166  23.911
   10   14    5   11          0.000   4.309   0.126
   12   13   17   11          0.000  -0.596  23.916
   17   21   12   18          0.000  15.553   0.127
   19   20   24   18          0.000  -0.047  23.987
   24   28   19   25          0.000   8.748   0.137
   26   27   31   25          0.000   0.370  24.123
   31   35   26   32          0.000  18.296   0.116
   33   34   38   32          0.000  -0.555  28.543
   38   40   33   39          0.000  -7.082  -0.052
   39   41   42   38          0.000  57.040   0.552
          #tors  :   98
          #nmol  :   7
          #optfrag :   7

 GFN-FF setup done.

           ------------------------------------------------- 
          |                   G F N - F F                   |
          |          A general generic force-field          |
          |                  Version 1.0.3                  | 
           ------------------------------------------------- 
      * Solvation model:               ALPB
        Solvent                        water
        Parameter file                 internal GFN-FF/ALPB
        Dielectric constant                8.0200E+01
        Reference state                gsolv [1 M gas/solution]
        Free energy shift                  3.6494E-04 Eh       2.2900E-01 kcal/mol
        Temperature                        2.9815E+02 K
        Density                            1.0000E+00 kg/L
        Solvent mass                       1.8000E+01 g/mol
        Interaction kernel             P16
        Born radius scaling (c1)           1.5056E+00
        Born radii integrator          GBOBC
        Born offset                        0.0000E+00 a0       0.0000E+00 AA
        H-bond correction              true
        Ion screening                  false
        Surface tension                    1.0000E-05 Eh       1.5569E+01 dyn/cm
        Grid points                               230 per atom
          Number of HB bonds (bound hydrogen)     424
          Number of HB bonds (unbound hydrogen)   52
          Number of XB bonds                      0

 E+G (total)                   0 d,  0 h,  0 min,  0.001 sec
 distance/D3 list               ...        0 min,  0.000 sec (  0.294%)
 non bonded repulsion           ...        0 min,  0.000 sec (  1.904%)
 dCN                            ...        0 min,  0.000 sec (  5.209%)
 EEQ energy and q               ...        0 min,  0.000 sec (  4.121%)
 D3                             ...        0 min,  0.000 sec (  9.507%)
 EEQ gradient                   ...        0 min,  0.000 sec (  4.783%)
 bonds                          ...        0 min,  0.000 sec (  0.853%)
 bend and torsion               ...        0 min,  0.000 sec (  3.992%)
 bonded ATM                     ...        0 min,  0.000 sec (  1.447%)
 HB/XB (incl list setup)        ...        0 min,  0.000 sec (  8.534%)
 GBSA                           ...        0 min,  0.001 sec ( 62.043%)

         :::::::::::::::::::::::::::::::::::::::::::::::::::::
         ::                     SUMMARY                     ::
         :::::::::::::::::::::::::::::::::::::::::::::::::::::
         :: total energy              -7.489816113422 Eh    ::
         :: total w/o Gsolv           -7.440834106240 Eh    ::
         :: total w/o Gsasa/hb        -7.483628837855 Eh    ::
         :: gradient norm              0.167230246019 Eh/a0 ::
         ::.................................................::
         :: bond energy               -7.538773008496 Eh    ::
         :: angle energy               0.033579846745 Eh    ::
         :: torsion energy             0.022316299836 Eh    ::
         :: repulsion energy           0.457986160316 Eh    ::
         :: electrostat energy        -0.377324045374 Eh    ::
         :: dispersion energy         -0.028158073263 Eh    ::
         :: HB energy                 -0.000697359610 Eh    ::
         :: XB energy                  0.000000000000 Eh    ::
         :: bonded atm energy         -0.009763926394 Eh    ::
         :: external energy            0.000000000000 Eh    ::
         :: -> Gsolv                  -0.048982007182 Eh    ::
         ::    -> Gborn               -0.042794731615 Eh    ::
         ::    -> Gsasa                0.011689539607 Eh    ::
         ::    -> Ghb                 -0.018241754428 Eh    ::
         ::    -> Gshift               0.000364939255 Eh    ::
         :: add. restraining           0.000000000000 Eh    ::
         :: total charge               0.000000000000 e     ::
         ::.................................................::
         :: atomisation energy         0.000000000000 Eh    ::
         :::::::::::::::::::::::::::::::::::::::::::::::::::::

      ----------------------------------------------------------- 
     |                   =====================                   |
     |                        A N C O P T                        |
     |                   =====================                   |
     |               Approximate Normal Coordinate               |
     |                Rational Function Optimizer                |
      ----------------------------------------------------------- 

          ...................................................
          :                      SETUP                      :
          :.................................................:
          :   optimization level         verytight          :
          :   max. optcycles                    10          :
          :   ANC micro-cycles                  10          :
          :   degrees of freedom               120          :
          :.................................................:
          :   RF solver                   davidson          :
          :   write xtbopt.log                true          :
          :   linear?                        false          :
          :   energy convergence         0.1000000E-06 Eh   :
          :   grad. convergence          0.2000000E-03 Eh/α :
          :   maxmium RF displ.          1.0000000          :
          :   Hlow (freq-cutoff)         0.1000000E-01      :
          :   Hmax (freq-cutoff)         5.0000000          :
          :   S6 in model hess.         20.0000000          :
          ...................................................

generating ANC from model Hessian ...
Using GFN-FF Lindh-Hessian
 Shifting diagonal of input Hessian by    0.0000000000000000     
 Lowest  eigenvalues of input Hessian
    0.000000    0.000000    0.000000    0.000000    0.000000    0.000000
    0.016272    0.018432    0.023185    0.025560    0.046162    0.050051
    0.060787    0.065775    0.073114    0.085511    0.088225    0.098590
 Highest eigenvalues
    3.653175    3.910853    4.019528    4.106286    4.226322    4.277113


........................................................................
.............................. CYCLE    1 ..............................
........................................................................
     iter. time                 ...        0 min,  0.001 sec
 * total energy  :    -7.4898161 Eh     change        0.0000000E+00 Eh
   gradient norm :     0.1672302 Eh/α   predicted     0.0000000E+00 (    NaN%)
   displ. norm   :     0.0866826 α      lambda       -0.1099157E-01
   maximum displ.:     0.0352211 α      in ANC's #48, #107, #45, ...

........................................................................
.............................. CYCLE    2 ..............................
........................................................................
     iter. time                 ...        0 min,  0.001 sec
 * total energy  :    -7.4971191 Eh     change       -0.7303015E-02 Eh
   gradient norm :     0.0610858 Eh/α   predicted    -0.5539572E-02 ( -24.15%)
   displ. norm   :     0.0563238 α      lambda       -0.2564147E-02
   maximum displ.:     0.0157339 α      in ANC's #48, #35, #107, ...

........................................................................
.............................. CYCLE    3 ..............................
........................................................................
     iter. time                 ...        0 min,  0.001 sec
 * total energy  :    -7.4985660 Eh     change       -0.1446892E-02 Eh
   gradient norm :     0.0165930 Eh/α   predicted    -0.1286206E-02 ( -11.11%)
   displ. norm   :     0.0258362 α      lambda       -0.2441684E-03
   maximum displ.:     0.0100855 α      in ANC's #22, #13, #44, ...

........................................................................
.............................. CYCLE    4 ..............................
........................................................................
     iter. time                 ...        0 min,  0.001 sec
 * total energy  :    -7.4987423 Eh     change       -0.1763145E-03 Eh
   gradient norm :     0.0090894 Eh/α   predicted    -0.1269853E-03 ( -27.98%)
   displ. norm   :     0.0217566 α      lambda       -0.1066483E-03
   maximum displ.:     0.0105125 α      in ANC's #22, #44, #37, ...

........................................................................
.............................. CYCLE    5 ..............................
........................................................................
     iter. time                 ...        0 min,  0.001 sec
 * total energy  :    -7.4988054 Eh     change       -0.6307274E-04 Eh
   gradient norm :     0.0034643 Eh/α   predicted    -0.5336154E-04 ( -15.40%)
   displ. norm   :     0.0083006 α      lambda       -0.1636210E-04
   maximum displ.:     0.0037571 α      in ANC's #22, #37, #44, ...

........................................................................
.............................. CYCLE    6 ..............................
........................................................................
     iter. time                 ...        0 min,  0.001 sec
 * total energy  :    -7.4988174 Eh     change       -0.1203349E-04 Eh
   gradient norm :     0.0023703 Eh/α   predicted    -0.8338985E-05 ( -30.70%)
   displ. norm   :     0.0084583 α      lambda       -0.1078816E-04
   maximum displ.:     0.0029911 α      in ANC's #37, #44, #22, ...

........................................................................
.............................. CYCLE    7 ..............................
........................................................................
     iter. time                 ...        0 min,  0.001 sec
 * total energy  :    -7.4988241 Eh     change       -0.6678613E-05 Eh
   gradient norm :     0.0016005 Eh/α   predicted    -0.5409434E-05 ( -19.00%)
   displ. norm   :     0.0053114 α      lambda       -0.1567205E-05
   maximum displ.:     0.0021733 α      in ANC's #13, #3, #37, ...

........................................................................
.............................. CYCLE    8 ..............................
........................................................................
     iter. time                 ...        0 min,  0.001 sec
 * total energy  :    -7.4988258 Eh     change       -0.1666735E-05 Eh
   gradient norm :     0.0007827 Eh/α   predicted    -0.1091983E-05 ( -34.48%)
   displ. norm   :     0.0018980 α      lambda       -0.4616068E-06
   maximum displ.:     0.0007441 α      in ANC's #4, #35, #3, ...

........................................................................
.............................. CYCLE    9 ..............................
........................................................................
     iter. time                 ...        0 min,  0.001 sec
 * total energy  :    -7.4988262 Eh     change       -0.4235548E-06 Eh
   gradient norm :     0.0002792 Eh/α   predicted    -0.2335748E-06 ( -44.85%)
   displ. norm   :     0.0018913 α      lambda       -0.9528048E-07
   maximum displ.:     0.0011228 α      in ANC's #3, #2, #4, ...

........................................................................
.............................. CYCLE   10 ..............................
........................................................................
     iter. time                 ...        0 min,  0.001 sec
 * total energy  :    -7.4988263 Eh     change       -0.1262939E-06 Eh
   gradient norm :     0.0001943 Eh/α   predicted    -0.5551271E-07 ( -56.04%)
   displ. norm   :     0.0040383 α      lambda       -0.1286099E-06
   maximum displ.:     0.0025241 α      in ANC's #3, #2, #4, ...

   *** FAILED TO CONVERGE GEOMETRY OPTIMIZATION IN 10 ITERATIONS ***


 ANCopt (total)                0 d,  0 h,  0 min,  0.010 sec
 optimizer setup                ...        0 min,  0.000 sec (  0.769%)
 model hessian                  ...        0 min,  0.000 sec (  2.997%)
 ANC generation                 ...        0 min,  0.001 sec (  8.390%)
 coordinate transformation      ...        0 min,  0.000 sec (  0.447%)
 single point calculation       ...        0 min,  0.008 sec ( 77.539%)
 optimization log               ...        0 min,  0.001 sec (  4.934%)
 hessian update                 ...        0 min,  0.000 sec (  0.639%)
 rational function              ...        0 min,  0.000 sec (  2.570%)

================
 final structure:
================
ATOM      1  C   GLY A  11      -1.714 -11.456  -0.607  1.00  0.00           C  
ATOM      2  O   GLY A  11      -2.152 -12.308  -1.337  1.00  0.00           O  
ATOM      3  N   GLY A  12      -0.781 -10.544  -0.995  1.00  0.00           N  
ATOM      4  CA  GLY A  12      -0.374 -10.468  -2.383  1.00  0.00           C  
ATOM      5  C   GLY A  12      -0.797  -9.159  -2.995  1.00  0.00           C  
ATOM      6  O   GLY A  12      -1.881  -8.711  -2.680  1.00  0.00           O  
ATOM      7  H   GLY A  12      -0.616  -9.687  -0.462  1.00  0.00           H  
ATOM      8  HA2 GLY A  12       0.709 -10.610  -2.435  1.00  0.00           H  
ATOM      9  HA3 GLY A  12      -0.852 -11.296  -2.917  1.00  0.00           H  
ATOM     10  N   GLY A  13       0.002  -8.484  -3.900  1.00  0.00           N  
ATOM     11  CA  GLY A  13       1.319  -8.900  -4.374  1.00  0.00           C  
ATOM     12  C   GLY A  13       1.532  -8.506  -5.811  1.00  0.00           C  
ATOM     13  O   GLY A  13       0.604  -8.576  -6.587  1.00  0.00           O  
ATOM     14  H   GLY A  13      -0.370  -7.664  -4.370  1.00  0.00           H  
ATOM     15  HA2 GLY A  13       2.083  -8.461  -3.730  1.00  0.00           H  
ATOM     16  HA3 GLY A  13       1.402  -9.989  -4.305  1.00  0.00           H  
ATOM     17  N   GLY A  14       2.786  -8.101  -6.219  1.00  0.00           N  
ATOM     18  CA  GLY A  14       3.004  -7.600  -7.563  1.00  0.00           C  
ATOM     19  C   GLY A  14       3.152  -6.101  -7.568  1.00  0.00           C  
ATOM     20  O   GLY A  14       2.237  -5.458  -7.095  1.00  0.00           O  
ATOM     21  H   GLY A  14       3.517  -7.875  -5.543  1.00  0.00           H  
ATOM     22  HA2 GLY A  14       3.860  -8.109  -8.011  1.00  0.00           H  
ATOM     23  HA3 GLY A  14       2.122  -7.869  -8.155  1.00  0.00           H  
ATOM     24  N   GLY A  15       4.257  -5.429  -8.071  1.00  0.00           N  
ATOM     25  CA  GLY A  15       5.425  -5.995  -8.750  1.00  0.00           C  
ATOM     26  C   GLY A  15       5.414  -5.679 -10.222  1.00  0.00           C  
ATOM     27  O   GLY A  15       4.634  -6.266 -10.941  1.00  0.00           O  
ATOM     28  H   GLY A  15       4.205  -4.415  -8.132  1.00  0.00           H  
ATOM     29  HA2 GLY A  15       6.333  -5.606  -8.282  1.00  0.00           H  
ATOM     30  HA3 GLY A  15       5.451  -7.078  -8.617  1.00  0.00           H  
ATOM     31  N   GLY A  16       6.286  -4.728 -10.712  1.00  0.00           N  
ATOM     32  CA  GLY A  16       6.178  -4.243 -12.081  1.00  0.00           C  
ATOM     33  C   GLY A  16       5.809  -2.776 -12.099  1.00  0.00           C  
ATOM     34  O   GLY A  16       4.857  -2.435 -11.446  1.00  0.00           O  
ATOM     35  H   GLY A  16       6.797  -4.109 -10.081  1.00  0.00           H  
ATOM     36  HA2 GLY A  16       7.117  -4.439 -12.607  1.00  0.00           H  
ATOM     37  HA3 GLY A  16       5.393  -4.825 -12.574  1.00  0.00           H  
ATOM     38  N   GLY A  17       6.562  -1.846 -12.838  1.00  0.00           N  
ATOM     39  CA  GLY A  17       7.731  -2.014 -13.565  1.00  0.00           C  
ATOM     40  H   GLY A  17       6.209  -0.875 -12.813  1.00  0.00           H  
ATOM     41  HA2 GLY A  17       8.534  -2.352 -12.888  1.00  0.00           H  
ATOM     42  HA3 GLY A  17       7.639  -2.818 -14.301  1.00  0.00           H  
END

 Bond Distances (Angstroems)
 ---------------------------
C1-O2=1.2043         C1-N3=1.3607         O2-C1=1.2043         N3-C1=1.3607         N3-C4=1.4486         N3-H7=1.0230         
C4-N3=1.4486         C4-C5=1.5054         C4-H8=1.0933         C4-H9=1.0947         C5-C4=1.5054         C5-O6=1.2144         
C5-N10=1.3827        O6-C5=1.2144         H7-N3=1.0230         H8-C4=1.0933         H9-C4=1.0947         N10-C5=1.3827        
N10-C11=1.4597       N10-H14=1.0166       C11-N10=1.4597       C11-C12=1.5050       C11-H15=1.0918       C11-H16=1.0944       
C12-C11=1.5050       C12-O13=1.2123       C12-N17=1.3795       O13-C12=1.2123       H14-N10=1.0166       H15-C11=1.0918       
H16-C11=1.0944       N17-C12=1.3795       N17-C18=1.4508       N17-H21=1.0205       C18-N17=1.4508       C18-C19=1.5063       
C18-H22=1.0919       C18-H23=1.0962       C19-C18=1.5063       C19-O20=1.2144       C19-N24=1.3876       O20-C19=1.2144       
H21-N17=1.0205       H22-C18=1.0919       H23-C18=1.0962       N24-C19=1.3876       N24-C25=1.4649       N24-H28=1.0168       
C25-N24=1.4649       C25-C26=1.5051       C25-H29=1.0940       C25-H30=1.0916       C26-C25=1.5051       C26-O27=1.2123       
C26-N31=1.3808       O27-C26=1.2123       H28-N24=1.0168       H29-C25=1.0940       H30-C25=1.0916       N31-C26=1.3808       
N31-C32=1.4564       N31-H35=1.0209       C32-N31=1.4564       C32-C33=1.5126       C32-H36=1.0943       C32-H37=1.0939       
C33-C32=1.5126       C33-O34=1.2038       C33-N38=1.4069       O34-C33=1.2038       H35-N31=1.0209       H36-C32=1.0943       
H37-C32=1.0939       N38-C33=1.4069       N38-C39=1.3871       N38-H40=1.0335       C39-N38=1.3871       C39-H41=1.1030       
C39-H42=1.0945       H40-N38=1.0335       H41-C39=1.1030       H42-C39=1.0945       
 C  H  Rav=1.0945 sigma=0.0029  Rmin=1.0916  Rmax=1.1030    12
 C  C  Rav=1.5069 sigma=0.0029  Rmin=1.5050  Rmax=1.5126     5
 N  H  Rav=1.0219 sigma=0.0057  Rmin=1.0166  Rmax=1.0335     6
 N  C  Rav=1.4138 sigma=0.0372  Rmin=1.3607  Rmax=1.4649    12
 O  C  Rav=1.2103 sigma=0.0044  Rmin=1.2038  Rmax=1.2144     6

 selected bond angles (degree)
 --------------------
N3-C1-O2=123.45                C4-N3-C1=120.09                H7-N3-C1=121.60                H7-N3-C4=114.16                
C5-C4-N3=110.87                H8-C4-N3=108.50                H8-C4-C5=111.82                H9-C4-N3=107.70                
H9-C4-C5=109.66                H9-C4-H8=108.16                O6-C5-C4=117.79                N10-C5-C4=121.87               
N10-C5-O6=120.34               C11-N10-C5=126.49              H14-N10-C5=119.03              H14-N10-C11=114.18             

 selected dihedral angles (degree)
 ---------------------------------
C4-N3-C1-O2=  6.92            H7-N3-C1-O2=162.70            C5-C4-N3-C1=113.88            C5-C4-N3-H7=316.39            
H8-C4-N3-C1=237.05            H8-C4-N3-H7= 79.56            H9-C4-N3-C1=353.91            H9-C4-N3-H7=196.42            
O6-C5-C4-N3=321.41            O6-C5-C4-H8=200.18            O6-C5-C4-H9= 80.22            N10-C5-C4-N3=142.21           
N10-C5-C4-H8= 20.98           N10-C5-C4-H9=261.01           C11-N10-C5-C4=359.42          C11-N10-C5-O6=180.24          
H14-N10-C5-C4=172.75          H14-N10-C5-O6=353.56          
           -------------------------------------------------
          |                Final Singlepoint                |
           -------------------------------------------------
         :::::::::::::::::::::::::::::::::::::::::::::::::::::
         ::                     SUMMARY                     ::
         :::::::::::::::::::::::::::::::::::::::::::::::::::::
         :: total energy              -7.498826500022 Eh    ::
         :: total w/o Gsolv           -7.450144541194 Eh    ::
         :: total w/o Gsasa/hb        -7.492821979928 Eh    ::
         :: gradient norm              0.000254911325 Eh/a0 ::
         ::.................................................::
         :: bond energy               -7.557896448843 Eh    ::
         :: angle energy               0.033181855137 Eh    ::
         :: torsion energy             0.025470426669 Eh    ::
         :: repulsion energy           0.461606027328 Eh    ::
         :: electrostat energy        -0.377755669562 Eh    ::
         :: dispersion energy         -0.028166499090 Eh    ::
         :: HB energy                 -0.000684864905 Eh    ::
         :: XB energy                  0.000000000000 Eh    ::
         :: bonded atm energy         -0.009549205496 Eh    ::
         :: external energy            0.000000000000 Eh    ::
         :: -> Gsolv                  -0.048681958828 Eh    ::
         ::    -> Gborn               -0.042677438735 Eh    ::
         ::    -> Gsasa                0.011722691523 Eh    ::
         ::    -> Ghb                 -0.018092150871 Eh    ::
         ::    -> Gshift               0.000364939255 Eh    ::
         :: add. restraining           0.003649837569 Eh    ::
         :: total charge              -0.000000000000 e     ::
         ::.................................................::
         :: atomisation energy         0.000000000000 Eh    ::
         :::::::::::::::::::::::::::::::::::::::::::::::::::::

           -------------------------------------------------
          |                Property Printout                |
           -------------------------------------------------
           -------------------------------------------------
          |                Geometry Summary                 |
           -------------------------------------------------

      molecular mass/u    :      342.3084131
   center of mass at/Å    :        2.6617159      -6.9027325      -7.1234949
  moments of inertia/u·Å² :        0.4327715E+03   0.1108723E+05   0.1124163E+05
rotational constants/cm⁻¹ :        0.3895273E-01   0.1520455E-02   0.1499572E-02

 * 34 selected distances

     #   Z          #   Z                                           value/Å
     1   6  C       3   7  N                                      1.3606915
     3   7  N       4   6  C                                      1.4485592
     5   6  C       6   8  O                                      1.2143890
     3   7  N       7   1  H                                      1.0229926
     4   6  C       8   1  H                                      1.0933209
     4   6  C       9   1  H                                      1.0946695
     5   6  C      10   7  N                                      1.3827366
    10   7  N      11   6  C                                      1.4597368
    12   6  C      13   8  O                                      1.2123024
    10   7  N      14   1  H                                      1.0166074 (min)
    11   6  C      15   1  H                                      1.0918463
    11   6  C      16   1  H                                      1.0943941
    12   6  C      17   7  N                                      1.3795433
    17   7  N      18   6  C                                      1.4507854
    19   6  C      20   8  O                                      1.2143572
    17   7  N      21   1  H                                      1.0205427
    18   6  C      22   1  H                                      1.0918729
    18   6  C      23   1  H                                      1.0961911
    19   6  C      24   7  N                                      1.3876183
    24   7  N      25   6  C                                      1.4648938 (max)
    26   6  C      27   8  O                                      1.2123428
    24   7  N      28   1  H                                      1.0168012
    25   6  C      29   1  H                                      1.0940142
    25   6  C      30   1  H                                      1.0916299
    26   6  C      31   7  N                                      1.3808118
    31   7  N      32   6  C                                      1.4564049
    33   6  C      34   8  O                                      1.2038435
    31   7  N      35   1  H                                      1.0208892
    32   6  C      36   1  H                                      1.0943137
    32   6  C      37   1  H                                      1.0938858
    33   6  C      38   7  N                                      1.4069487
    38   7  N      39   6  C                                      1.3870584
    38   7  N      40   1  H                                      1.0334677
    39   6  C      42   1  H                                      1.0945144

 * 4 distinct bonds (by element types)

   Z      Z             #   av. dist./Å        max./Å        min./Å
   1 H    6 C          11     1.0936957     1.0961911     1.0916299
   1 H    7 N           6     1.0218835     1.0334677     1.0166074
   6 C    7 N          12     1.4138157     1.4648938     1.3606915
   6 C    8 O           5     1.2114470     1.2143890     1.2038435


optimized geometry written to: xtbopt.pdb


           -------------------------------------------------
          | TOTAL ENERGY               -7.498826500022 Eh   |
          | GRADIENT NORM               0.000254911325 Eh/α |
           -------------------------------------------------
########################################################################
[WARNING] Runtime exception occurred
-1- gfnff_setup: Could not read topology file.
########################################################################

------------------------------------------------------------------------
 unit  open   action     filename
   10 false : read       xtb_settings.inp
   10 false : read       substructure_63.pdb
   10 false : read       xtb_settings.inp
   10 false : written    gfnff_topo
   10 false : written    gfnff_adjacency
   10 false : written    gfnff_charges
   10 false : deleted    .xtboptok
   10 false : replaced   xtbopt.log
   11 false : created    .xtboptok
   11 false : replaced   gfnff_charges
   10 false : replaced   xtbopt.pdb

------------------------------------------------------------------------
 * finished run on 2025/05/27 at 09:37:54.690     
------------------------------------------------------------------------
 total:
 * wall-time:     0 d,  0 h,  0 min,  0.016 sec
 *  cpu-time:     0 d,  0 h,  0 min,  0.016 sec
 * ratio c/w:     0.998 speedup
 SCF:
 * wall-time:     0 d,  0 h,  0 min,  0.001 sec
 *  cpu-time:     0 d,  0 h,  0 min,  0.001 sec
 * ratio c/w:     0.999 speedup
 ANC optimizer:
 * wall-time:     0 d,  0 h,  0 min,  0.012 sec
 *  cpu-time:     0 d,  0 h,  0 min,  0.012 sec
 * ratio c/w:     0.998 speedup

