      -----------------------------------------------------------      
     |                   =====================                   |     
     |                           x T B                           |     
     |                   =====================                   |     
     |                         S. Grimme                         |     
     |          Mulliken Center for Theoretical Chemistry        |     
     |                    University of Bonn                     |     
      -----------------------------------------------------------      

   * xtb version 6.6.1 (8d0f1dd) compiled by 'conda@1efc2f54142f' on 2023-08-01

   xtb is free software: you can redistribute it and/or modify it under
   the terms of the GNU Lesser General Public License as published by
   the Free Software Foundation, either version 3 of the License, or
   (at your option) any later version.
   
   xtb is distributed in the hope that it will be useful,
   but WITHOUT ANY WARRANTY; without even the implied warranty of
   MERCHANTABILITY or FITNESS FOR A PARTICULAR PURPOSE.  See the
   GNU Lesser General Public License for more details.
   
   Cite this work as:
   * C. Bannwarth, E. Caldeweyher, S. Ehlert, A. Hansen, P. Pracht,
     J. Seibert, S. Spicher, S. Grimme, WIREs Comput. Mol. Sci., 2020, 11,
     e01493. DOI: 10.1002/wcms.1493
   
   for GFN2-xTB:
   * C. Bannwarth, S. Ehlert and S. Grimme., J. Chem. Theory Comput., 2019,
     15, 1652-1671. DOI: 10.1021/acs.jctc.8b01176
   for GFN1-xTB:
   * S. Grimme, C. Bannwarth, P. Shushkov, J. Chem. Theory Comput., 2017,
     13, 1989-2009. DOI: 10.1021/acs.jctc.7b00118
   for GFN0-xTB:
   * P. Pracht, E. Caldeweyher, S. Ehlert, S. Grimme, ChemRxiv, 2019, preprint.
     DOI: 10.26434/chemrxiv.8326202.v1
   for GFN-FF:
   * S. Spicher and S. Grimme, Angew. Chem. Int. Ed., 2020, 59, 15665-15673.
     DOI: 10.1002/anie.202004239
   
   for ALPB and GBSA implicit solvation:
   * S. Ehlert, M. Stahn, S. Spicher, S. Grimme, J. Chem. Theory Comput.,
     2021, 17, 4250-4261. DOI: 10.1021/acs.jctc.1c00471
   
   for DFT-D4:
   * E. Caldeweyher, C. Bannwarth and S. Grimme, J. Chem. Phys., 2017,
     147, 034112. DOI: 10.1063/1.4993215
   * E. Caldeweyher, S. Ehlert, A. Hansen, H. Neugebauer, S. Spicher,
     C. Bannwarth and S. Grimme, J. Chem. Phys., 2019, 150, 154122.
     DOI: 10.1063/1.5090222
   * E. Caldeweyher, J.-M. Mewes, S. Ehlert and S. Grimme, Phys. Chem. Chem. Phys.
     2020, 22, 8499-8512. DOI: 10.1039/D0CP00502A
   
   for sTDA-xTB:
   * S. Grimme and C. Bannwarth, J. Chem. Phys., 2016, 145, 054103.
     DOI: 10.1063/1.4959605
   
   in the mass-spec context:
   * V. Asgeirsson, C. Bauer and S. Grimme, Chem. Sci., 2017, 8, 4879.
     DOI: 10.1039/c7sc00601b
   * J. Koopman and S. Grimme, ACS Omega 2019, 4, 12, 15120-15133.
     DOI: 10.1021/acsomega.9b02011
   
   for metadynamics refer to:
   * S. Grimme, J. Chem. Theory Comput., 2019, 155, 2847-2862
     DOI: 10.1021/acs.jctc.9b00143
   
   for SPH calculations refer to:
   * S. Spicher and S. Grimme, J. Chem. Theory Comput., 2021, 17, 1701-1714
     DOI: 10.1021/acs.jctc.0c01306
   
   with help from (in alphabetical order)
   P. Atkinson, C. Bannwarth, F. Bohle, G. Brandenburg, E. Caldeweyher
   M. Checinski, S. Dohm, S. Ehlert, S. Ehrlich, I. Gerasimov, C. Hölzer
   A. Katbashev, J. Koopman, C. Lavigne, S. Lehtola, F. März, M. Müller,
   F. Musil, H. Neugebauer, J. Pisarek, C. Plett, P. Pracht, F. Pultar,
   J. Seibert, P. Shushkov, S. Spicher, M. Stahn, M. Steiner, T. Strunk,
   J. Stückrath, T. Rose, and J. Unsleber
   
 * started run on 2025/05/27 at 09:37:47.706     

           -------------------------------------------------
          |                Calculation Setup                |
           -------------------------------------------------

          program call               : xtb substructure_37.pdb --gfnff --input xtb_settings.inp --opt vtight --alpb water --verbose
          coordinate file            : substructure_37.pdb
          xtbhome directory          : /home/dargen3
          path for xtb               : /home/dargen3
          xcontrol input file        : xtb_settings.inp
          omp threads                :                     1

$$$$$$$$$$$$$$$$$$$$$$$$$$$$$$$$$$$$$$$$$$$$$$$$$$$$$$$$$$$$$$$$$$$$$$$$
 CONSTRAINTS & SCANS: DEBUG SECTION
$$$$$$$$$$$$$$$$$$$$$$$$$$$$$$$$$$$$$$$$$$$$$$$$$$$$$$$$$$$$$$$$$$$$$$$$
   ID    Z sym.   atoms
    1    6  C     1, 4, 5, 11, 12, 18, 19, 25, 26, 32, 33, 39
    2    8  O     2, 6, 13, 20, 27, 34
    3    7  N     3, 10, 17, 24, 31, 38
    4    1  H     7-9, 14-16, 21-23, 28-30, 35-37, 40-42
> constrain
-> atoms: 1, 2, 3, 4, 5, 6, 7, 8, 9, 10, 11, 12, 13, 14, 15, 16, 18, 24, 25, 26, 27, 28, 29, 30, 31, 32, 33, 34, 35, 36, 37, 38, 39, 40, 41, 42
--> 1: 1
--> 2: 2
--> 3: 3
--> 4: 4
--> 5: 5
--> 6: 6
--> 7: 7
--> 8: 8
--> 9: 9
--> 10: 10
--> 11: 11
--> 12: 12
--> 13: 13
--> 14: 14
--> 15: 15
--> 16: 16
--> 17: 18
--> 18: 24
--> 19: 25
--> 20: 26
--> 21: 27
--> 22: 28
--> 23: 29
--> 24: 30
--> 25: 31
--> 26: 32
--> 27: 33
--> 28: 34
--> 29: 35
--> 30: 36
--> 31: 37
--> 32: 38
--> 33: 39
--> 34: 40
--> 35: 41
--> 36: 42
-> force constant=1.0
$$$$$$$$$$$$$$$$$$$$$$$$$$$$$$$$$$$$$$$$$$$$$$$$$$$$$$$$$$$$$$$$$$$$$$$$
           -------------------------------------------------
          |                   Constraints                   |
           -------------------------------------------------

 * 36 constrained atom positions
   positions refering to input geometry

     #   Z                                   position/Å      displ./Å
     1   6 C     -1.7720002   -11.4250011    -0.6210001     0.0000000
     2   8 O     -2.2600002   -12.2260011    -1.3890001     0.0000000
     3   7 N     -0.7580001   -10.5710010    -0.9970001     0.0000000
     4   6 C     -0.3730000   -10.4770010    -2.3880002     0.0000000
     5   6 C     -0.7710001    -9.1300008    -2.9510003     0.0000000
     6   8 O     -1.8300002    -8.6550008    -2.5970002     0.0000000
     7   1 H     -0.5100000    -9.7640009    -0.4230000     0.0000000
     8   1 H      0.7030001   -10.6390010    -2.4620002     0.0000000
     9   1 H     -0.8870001   -11.2650010    -2.9330003     0.0000000
    10   7 N      0.0240000    -8.4610008    -3.8630004     0.0000000
    11   6 C      1.3240001    -8.8870008    -4.3620004     0.0000000
    12   6 C      1.5210001    -8.4760008    -5.8040005     0.0000000
    13   8 O      0.5750001    -8.4800008    -6.5600006     0.0000000
    14   1 H     -0.3340000    -7.6180007    -4.3040004     0.0000000
    15   1 H      2.1080002    -8.5030008    -3.7320003     0.0000000
    16   1 H      1.3710001    -9.9920009    -4.3350004     0.0000000
    18   6 C      3.0050003    -7.6070007    -7.5660007     0.0000000
    24   7 N      4.2610004    -5.4290005    -8.0630007     0.0000000
    25   6 C      5.4280005    -5.9890006    -8.7440008     0.0000000
    26   6 C      5.4120005    -5.6760005   -10.2200009     0.0000000
    27   8 O      4.6420004    -6.2730006   -10.9410010     0.0000000
    28   1 H      4.2180004    -4.4140004    -8.1030008     0.0000000
    29   1 H      6.3360006    -5.6080005    -8.2830008     0.0000000
    30   1 H      5.4510005    -7.0780007    -8.6190008     0.0000000
    31   7 N      6.2720006    -4.7110004   -10.7060010     0.0000000
    32   6 C      6.1780006    -4.2520004   -12.0880011     0.0000000
    33   6 C      5.7980005    -2.7900003   -12.1300011     0.0000000
    34   8 O      4.8200004    -2.4470002   -11.4980011     0.0000000
    35   1 H      6.7730006    -4.0850004   -10.0750009     0.0000000
    36   1 H      7.1300007    -4.4330004   -12.5890012     0.0000000
    37   1 H      5.4090005    -4.8420004   -12.5790012     0.0000000
    38   7 N      6.5010006    -1.8460002   -12.8620012     0.0000000
    39   6 C      7.7600007    -2.0220002   -13.5740013     0.0000000
    40   1 H      6.1870006    -0.8730001   -12.8460012     0.0000000
    41   1 H      8.5330008    -2.3260002   -12.8590012     0.0000000
    42   1 H      7.6390007    -2.8390003   -14.3040013     0.0000000

     applying 630 atom pairwise harmonic potentials
       applied force constant per pair:     0.0285714
     effective force constant per atom:     1.0000000
         constraining energy/grad norm:     0.0000000     0.0000000

     total constraint energy/grad norm:     0.0000000     0.0000000

          charge from pdb residues: 0

          entering GFN-FF setup routine... 42

          ==================== Thresholds ====================
          CN  :   150.00000
          rep :   500.00000
          disp:  2500.00000
          HB1 :   250.00000
          HB2 :   450.00000

          Pauling EN used:
          Z : 1  EN :  2.20
          Z : 6  EN :  2.55
          Z : 7  EN :  3.04
          Z : 8  EN :  3.44
          electric field strengths (au): 0.000

           ------------------------------------------------- 
          |           Force Field Initialization            |
           ------------------------------------------------- 

          distances ...
          ----------------------------------------
          generating topology and atomic info file ...
          pair mat ...
          computing topology distances matrix with Floyd-Warshall algo ...
          making topology EEQ charges ...
          #fragments for EEQ constrain from pdb file: 7
          ----------------------------------------
          generating topology and atomic info file ...
          pair mat ...
          computing topology distances matrix with Floyd-Warshall algo ...
          making topology EEQ charges ...
          #fragments for EEQ constrain from pdb file: 7
          rings ...
          # BATM   334
          # H in HB   18
          doing iterative Hueckel for 6 subsystem(s) ...
          iterative Hueckel run to get P ...
Hueckel system :  1 charge :   0 ndim/Nel :    3    3   eps(HOMO/LUMO)   -0.953545   -0.953545
Hueckel system :  2 charge :   0 ndim/Nel :    3    4   eps(HOMO/LUMO)   -0.911563   -0.911563
Hueckel system :  3 charge :   0 ndim/Nel :    3    4   eps(HOMO/LUMO)   -0.911539   -0.911539
Hueckel system :  4 charge :   0 ndim/Nel :    3    4   eps(HOMO/LUMO)   -0.912604   -0.912604
Hueckel system :  5 charge :   0 ndim/Nel :    3    4   eps(HOMO/LUMO)   -0.910014   -0.910014
Hueckel system :  6 charge :   0 ndim/Nel :    4    5   eps(HOMO/LUMO)    1.305314    1.305314
WARNING: probably wrong pi occupation for system 6. Second attempt with Nel=Nel-1!
 at,nb,topo%hyb,Npiel:          33  C             3           2           1
 at,nb,topo%hyb,Npiel:          34  O             1           2           1
 at,nb,topo%hyb,Npiel:          38  N             3           3           2
 at,nb,topo%hyb,Npiel:          39  C             3           2           1

          eigenvalues
 #    :           1          2          3          4
 occ. :        2.000      1.987      0.013      0.000
 eps  :        -4.349     -2.183      1.305      3.389
Hueckel system :  6 charge :   0 ndim/Nel :    4    4   eps(HOMO/LUMO)   -2.182830    1.305314

  atom   neighbors  erfCN metchar sp-hybrid imet pi  qest     coordinates
    1   C      2    1.93   0.00        -2    0    1   0.120   -3.348595  -21.590121   -1.173520
    2   O      1    0.98   0.00         2    0    1  -0.120   -4.270781  -23.103792   -2.624830
    3   N      3    2.79   0.00        -3    0    1  -0.166   -1.432412  -19.976295   -1.884057
    4   C      4    3.49   0.00         3    0    0   0.005   -0.704868  -19.798661   -4.512666
    5   C      3    2.79   0.00         2    0    1   0.174   -1.456979  -17.253200   -5.576582
    6   O      1    0.98   0.00         2    0    1  -0.352   -3.458199  -16.355580   -4.907619
    7   H      1    0.98   0.00         0    0    0   0.153   -0.963760  -18.451286   -0.799354
    8   H      1    0.97   0.00         0    0    0   0.093    1.328477  -20.104796   -4.652506
    9   H      1    0.97   0.00         0    0    0   0.093   -1.676187  -21.287765   -5.542567
   10   N      3    2.79   0.00        -3    0    1  -0.168    0.045353  -15.988973   -7.300012
   11   C      4    3.49   0.00         3    0    0   0.006    2.501997  -16.793996   -8.242985
   12   C      3    2.80   0.00         2    0    1   0.174    2.874273  -16.017319  -10.967970
   13   O      1    0.98   0.00         2    0    1  -0.352    1.086593  -16.024878  -12.396603
   14   H      1    0.98   0.00         0    0    0   0.155   -0.631169  -14.395934   -8.133381
   15   H      1    0.97   0.00         0    0    0   0.092    3.983543  -16.068341   -7.052458
   16   H      1    0.97   0.01         0    0    0   0.092    2.590815  -18.882143   -8.191963
   17   N      3    2.79   0.00        -3    0    1  -0.168    5.262887  -15.348356  -11.765435
   18   C      4    3.49   0.00         3    0    0   0.006    5.678627  -14.375147  -14.297668
   19   C      3    2.79   0.00         2    0    1   0.175    5.979093  -11.531109  -14.256094
   20   O      1    0.98   0.00         2    0    1  -0.353    4.280230  -10.317905  -13.303672
   21   H      1    0.98   0.00         0    0    0   0.154    6.687741  -15.017654  -10.506877
   22   H      1    0.97   0.00         0    0    0   0.093    7.279225  -15.321899  -15.163162
   23   H      1    0.97   0.00         0    0    0   0.093    3.998660  -14.834350  -15.410717
   24   N      3    2.79   0.00        -3    0    1  -0.165    8.052123  -10.259323  -15.236862
   25   C      4    3.49   0.00         3    0    0   0.004   10.257433  -11.317570  -16.523765
   26   C      3    2.79   0.00         2    0    1   0.178   10.227198  -10.726085  -19.313001
   27   O      1    0.98   0.00         2    0    1  -0.354    8.772109  -11.854252  -20.675494
   28   H      1    0.98   0.00         0    0    0   0.150    7.970865   -8.341251  -15.312451
   29   H      1    0.97   0.00         0    0    0   0.093   11.973305  -10.597584  -15.652601
   30   H      1    0.97   0.00         0    0    0   0.093   10.300897  -13.375482  -16.287549
   31   N      3    2.79   0.00        -3    0    1  -0.170   11.852362   -8.902500  -20.231408
   32   C      4    3.49   0.00         3    0    0   0.006   11.674728   -8.035115  -22.843009
   33   C      3    2.79   0.00         2    0    1   0.195   10.956632   -5.272336  -22.922378
   34   O      1    0.98   0.00         2    0    1  -0.357    9.108480   -4.624160  -21.728071
   35   H      1    0.98   0.00         0    0    0   0.147   12.799115   -7.719531  -19.038991
   36   H      1    0.97   0.00         0    0    0   0.090   13.473747   -8.377156  -23.789762
   37   H      1    0.97   0.00         0    0    0   0.090   10.221529   -9.150054  -23.770865
   38   N      3    2.79   0.00         3    0    1  -0.226   12.285110   -3.488434  -24.305657
   39   C      3    2.78   0.00         2    0    1  -0.008   14.664275   -3.821026  -25.651142
   40   H      1    0.98   0.00         0    0    0   0.123   11.691736   -1.649731  -24.275422
   41   H      1    0.97   0.00         0    0    0   0.055   16.125033   -4.395503  -24.299988
   42   H      1    0.97   0.01         0    0    0   0.055   14.435618   -5.364932  -27.030642

molecular fragment  # atoms  topo charge
       1             2            -0.000
       2             7            -0.000
       3             7            -0.000
       4             7            -0.000
       5             7             0.000
       6             7            -0.000
       7             5             0.000


          #atoms :   42
          #bonds :   41

 bond atoms        type  in ring    R      R0    piBO    fqq  kbond(tot)  alp
 O  C     2    1      2    0     1.212   0.996   0.799   1.047  -0.252   0.584
 N  C     3    1      2    0     1.378   1.215   0.504   1.047  -0.235   0.524
 C  N     4    3      1    0     1.446   1.326 -99.000   1.033  -0.151   0.496
 C  C     5    4      1    0     1.513   1.332 -99.000   1.013  -0.162   0.475
 O  C     6    5      2    0     1.213   1.031   0.856   1.047  -0.262   0.584
 H  N     7    3      1    0     1.021   0.890 -99.000   1.047  -0.176   0.551
 H  C     8    4      1    0     1.091   0.977 -99.000   1.018  -0.164   0.482
 H  C     9    4      1    0     1.087   0.977 -99.000   1.018  -0.164   0.482
 N  C    10    5      2    0     1.382   1.263   0.503   1.047  -0.234   0.524
 C  N    11   10      1    0     1.456   1.326 -99.000   1.035  -0.151   0.496
 C  C    12   11      1    0     1.512   1.332 -99.000   1.011  -0.162   0.475
 O  C    13   12      2    0     1.211   1.031   0.856   1.047  -0.262   0.584
 H  N    14   10      1    0     1.016   0.890 -99.000   1.047  -0.176   0.551
 H  C    15   11      1    0     1.077   0.976 -99.000   1.017  -0.164   0.482
 H  C    16   11      1    0     1.106   0.976 -99.000   1.017  -0.164   0.482
 N  C    17   12      2    0     1.379   1.263   0.503   1.047  -0.234   0.524
 C  N    18   17      1    0     1.452   1.326 -99.000   1.034  -0.151   0.496
 C  C    19   18      1    0     1.514   1.332 -99.000   1.012  -0.162   0.475
 O  C    20   19      2    0     1.214   1.031   0.856   1.047  -0.262   0.584
 H  N    21   17      1    0     1.021   0.890 -99.000   1.047  -0.176   0.551
 H  C    22   18      1    0     1.085   0.977 -99.000   1.017  -0.164   0.482
 H  C    23   18      1    0     1.094   0.976 -99.000   1.017  -0.164   0.482
 N  C    24   19      2    0     1.388   1.263   0.503   1.047  -0.234   0.524
 C  N    25   24      1    0     1.463   1.325 -99.000   1.031  -0.151   0.496
 C  C    26   25      1    0     1.509   1.332 -99.000   1.015  -0.163   0.475
 O  C    27   26      2    0     1.212   1.031   0.856   1.047  -0.262   0.584
 H  N    28   24      1    0     1.017   0.890 -99.000   1.047  -0.176   0.551
 H  C    29   25      1    0     1.087   0.976 -99.000   1.019  -0.164   0.482
 H  C    30   25      1    0     1.096   0.976 -99.000   1.019  -0.164   0.482
 N  C    31   26      2    0     1.381   1.263   0.504   1.047  -0.234   0.524
 C  N    32   31      1    0     1.459   1.326 -99.000   1.034  -0.151   0.496
 C  C    33   32      1    0     1.511   1.332 -99.000   1.011  -0.162   0.475
 O  C    34   33      2    0     1.214   1.018   0.930   1.047  -0.274   0.584
 H  N    35   31      1    0     1.020   0.890 -99.000   1.047  -0.176   0.551
 H  C    36   32      1    0     1.091   0.976 -99.000   1.018  -0.164   0.482
 H  C    37   32      1    0     1.087   0.977 -99.000   1.018  -0.164   0.482
 N  C    38   33      2    0     1.386   1.291   0.346   1.047  -0.203   0.524
 C  N    39   38      2    0     1.457   1.189   0.906   1.006  -0.302   0.524
 H  N    40   38      1    0     1.023   0.890 -99.000   1.047  -0.176   0.551
 H  C    41   39      1    0     1.096   0.949 -99.000   1.029  -0.179   0.490
 H  C    42   39      1    0     1.102   0.949 -99.000   1.029  -0.179   0.490
          #angl  :   67

 angle atoms        phi0    phi      FC  pi rings
    1    3    2   145.000 122.198   0.082 F   0
    3    4    1   115.000 119.905   0.411 F   0
    3    7    1   115.000 121.013   0.335 F   0
    3    7    4   104.000 115.131   0.182 F   0
    4    5    3   109.500 110.222   0.307 F   0
    4    8    3   109.500 108.555   0.253 F   0
    4    8    5   109.500 111.498   0.251 F   0
    4    9    3   109.500 108.007   0.253 F   0
    4    9    5   109.500 109.531   0.251 F   0
    4    9    8   108.600 108.949   0.209 F   0
    5    6    4   120.000 117.999   0.178 F   0
    5   10    4   120.000 121.664   0.243 F   0
    5   10    6   120.000 120.323   0.177 F   0
   10   11    5   115.000 126.716   0.409 F   0
   10   14    5   115.000 119.011   0.333 F   0
   10   14   11   104.000 114.102   0.182 F   0
   11   12   10   109.500 111.317   0.307 F   0
   11   15   10   109.500 110.197   0.253 F   0
   11   15   12   109.500 111.480   0.252 F   0
   11   16   10   109.500 108.769   0.253 F   0
   11   16   12   109.500 106.809   0.252 F   0
   11   16   15   108.600 108.122   0.209 F   0
   12   13   11   120.000 119.512   0.178 F   0
   12   17   11   120.000 118.752   0.243 F   0
   12   17   13   120.000 121.730   0.177 F   0
   17   18   12   115.000 120.818   0.409 F   0
   17   21   12   115.000 121.419   0.333 F   0
   17   21   18   104.000 115.414   0.182 F   0
   18   19   17   109.500 110.800   0.307 F   0
   18   22   17   109.500 110.112   0.253 F   0
   18   22   19   109.500 112.527   0.251 F   0
   18   23   17   109.500 107.155   0.253 F   0
   18   23   19   109.500 108.308   0.251 F   0
   18   23   22   108.600 107.727   0.209 F   0
   19   20   18   120.000 117.001   0.178 F   0
   19   24   18   120.000 124.045   0.243 F   0
   19   24   20   120.000 118.954   0.176 F   0
   24   25   19   115.000 128.257   0.409 F   0
   24   28   19   115.000 117.739   0.334 F   0
   24   28   25   104.000 113.432   0.182 F   0
   25   26   24   109.500 111.566   0.307 F   0
   25   29   24   109.500 109.557   0.253 F   0
   25   29   26   109.500 110.544   0.251 F   0
   25   30   24   109.500 110.118   0.253 F   0
   25   30   26   109.500 108.529   0.251 F   0
   25   30   29   108.600 106.391   0.209 F   0
   26   27   25   120.000 119.107   0.178 F   0
   26   31   25   120.000 118.856   0.242 F   0
   26   31   27   120.000 122.037   0.176 F   0
   31   32   26   115.000 120.863   0.409 F   0
   31   35   26   115.000 121.123   0.333 F   0
   31   35   32   104.000 115.109   0.182 F   0
   32   33   31   109.500 110.294   0.307 F   0
   32   36   31   109.500 109.059   0.253 F   0
   32   36   33   109.500 111.543   0.251 F   0
   32   37   31   109.500 107.624   0.253 F   0
   32   37   33   109.500 109.561   0.251 F   0
   32   37   36   108.600 108.664   0.209 F   0
   33   34   32   120.000 117.483   0.177 F   0
   33   38   32   120.000 123.096   0.241 F   0
   33   38   34   120.000 119.416   0.174 F   0
   38   39   33   113.000 127.883   0.042 F   0
   38   40   33   113.000 118.951   0.211 F   0
   38   40   39   113.000 112.825   0.105 F   0
   39   41   38   120.000 108.914   0.204 F   0
   39   42   38   120.000 108.560   0.204 F   0
   39   42   41   120.000 107.691   0.167 F   0
 torsion atoms        nrot   rings    phi0    phi      FC
    3    1    4    2   2      0     180.000   8.831   0.765
    3    1    7    2   2      0     180.000 165.380   1.135
    4    3    5    1   3      0     180.000 110.684   0.024
    4    3    5    7   3      0     180.000  47.184   0.032
    4    3    8    1   3      0     180.000 126.931   0.034
    4    3    8    7   3      0     180.000  75.200   0.045
    4    3    9    1   3      0     180.000   8.943   0.034
    4    3    9    7   3      0     180.000 166.812   0.045
    5    4    6    3   3      0     180.000  38.356   0.066
    5    4    6    8   3      0     180.000 158.990   0.115
    5    4    6    9   3      0     180.000  80.344   0.115
    5    4   10    3   3      0     180.000 142.957   0.041
    5    4   10    8   3      0     180.000  22.323   0.072
    5    4   10    9   3      0     180.000  98.343   0.072
   10    5   11    4   2      0     180.000   2.615   0.614
   10    5   11    6   2      0     180.000 178.728   0.833
   10    5   14    4   2      0     180.000 172.328   0.911
   10    5   14    6   2      0     180.000   6.329   1.235
   11   10   12    5   3      0     180.000 145.861   0.022
   11   10   12   14   3      0     180.000  29.295   0.032
   11   10   15    5   3      0     180.000  89.918   0.032
   11   10   15   14   3      0     180.000  94.926   0.045
   11   10   16    5   3      0     180.000  28.444   0.032
   11   10   16   14   3      0     180.000 146.712   0.045
   12   11   13   10   3      0     180.000  35.309   0.066
   12   11   13   15   3      0     180.000 158.801   0.115
   12   11   13   16   3      0     180.000  83.291   0.115
   12   11   17   10   3      0     180.000 145.529   0.041
   12   11   17   15   3      0     180.000  22.036   0.072
   12   11   17   16   3      0     180.000  95.872   0.072
   17   12   18   11   2      0     180.000 174.487   0.614
   17   12   18   13   2      0     180.000   6.369   0.832
   17   12   21   11   2      0     180.000  12.686   0.911
   17   12   21   13   2      0     180.000 168.170   1.235
   18   17   19   12   3      0     180.000 101.877   0.022
   18   17   19   21   3      0     180.000  60.961   0.032
   18   17   22   12   3      0     180.000 132.986   0.032
   18   17   22   21   3      0     180.000  64.177   0.045
   18   17   23   12   3      0     180.000  16.089   0.032
   18   17   23   21   3      0     180.000 178.926   0.045
   19   18   20   17   3      0     180.000  55.743   0.066
   19   18   20   22   3      0     180.000 179.507   0.115
   19   18   20   23   3      0     180.000  61.517   0.115
   19   18   24   17   3      0     180.000 124.434   0.041
   19   18   24   22   3      0     180.000   0.671   0.072
   19   18   24   23   3      0     180.000 118.306   0.072
   24   19   25   18   2      0     180.000   1.804   0.612
   24   19   25   20   2      0     180.000 178.016   0.830
   24   19   28   18   2      0     180.000 172.506   0.908
   24   19   28   20   2      0     180.000   7.313   1.231
   25   24   26   19   3      0     180.000 108.397   0.022
   25   24   26   28   3      0     180.000  62.638   0.032
   25   24   29   19   3      0     180.000 128.863   0.032
   25   24   29   28   3      0     180.000  60.103   0.045
   25   24   30   19   3      0     180.000  12.179   0.032
   25   24   30   28   3      0     180.000 176.786   0.045
   26   25   27   24   3      0     180.000  74.282   0.066
   26   25   27   29   3      0     180.000 163.543   0.115
   26   25   27   30   3      0     180.000  47.220   0.115
   26   25   31   24   3      0     180.000 105.364   0.041
   26   25   31   29   3      0     180.000  16.811   0.072
   26   25   31   30   3      0     180.000 133.134   0.072
   31   26   32   25   2      0     180.000 172.144   0.620
   31   26   32   27   2      0     180.000   7.490   0.840
   31   26   35   25   2      0     180.000  12.378   0.920
   31   26   35   27   2      0     180.000 167.257   1.247
   32   31   33   26   3      0     180.000 115.872   0.022
   32   31   33   35   3      0     180.000  45.043   0.032
   32   31   36   26   3      0     180.000 121.311   0.032
   32   31   36   35   3      0     180.000  77.774   0.045
   32   31   37   26   3      0     180.000   3.601   0.032
   32   31   37   35   3      0     180.000 164.517   0.045
   33   32   34   31   3      0     180.000  51.993   0.066
   33   32   34   36   3      0     180.000 173.344   0.115
   33   32   34   37   3      0     180.000  66.299   0.115
   33   32   38   31   3      0     180.000 128.797   0.041
   33   32   38   36   3      0     180.000   7.446   0.072
   33   32   38   37   3      0     180.000 112.911   0.072
   38   33   39   32   2      0     180.000   7.291   0.343
   38   33   39   34   2      0     180.000 173.513   0.465
   38   33   40   32   2      0     180.000 179.926   0.489
   38   33   40   34   2      0     180.000   0.731   0.663
   39   38   41   33   2      0     180.000  59.872   1.385
   39   38   41   40   2      0     180.000 113.277   1.974
   39   38   42   33   2      0     180.000  57.122   1.385
   39   38   42   40   2      0     180.000 129.728   1.974
 out-of-plane atoms          phi0    phi      FC
    3    7    1    4          0.000  20.180   0.133
    5    6   10    4          0.000  -1.143  23.911
   10   14    5   11          0.000   4.052   0.126
   12   13   17   11          0.000  -0.751  23.916
   17   21   12   18          0.000  15.558   0.127
   19   20   24   18          0.000  -0.149  23.987
   24   28   19   25          0.000   7.288   0.137
   26   27   31   25          0.000   0.320  24.123
   31   35   26   32          0.000  17.270   0.116
   33   34   38   32          0.000  -0.674  28.543
   38   40   33   39          0.000  -5.691  -0.052
   39   41   42   38          0.000  57.010   0.552
          #tors  :   98
          #nmol  :   7
          #optfrag :   7

 GFN-FF setup done.

           ------------------------------------------------- 
          |                   G F N - F F                   |
          |          A general generic force-field          |
          |                  Version 1.0.3                  | 
           ------------------------------------------------- 
      * Solvation model:               ALPB
        Solvent                        water
        Parameter file                 internal GFN-FF/ALPB
        Dielectric constant                8.0200E+01
        Reference state                gsolv [1 M gas/solution]
        Free energy shift                  3.6494E-04 Eh       2.2900E-01 kcal/mol
        Temperature                        2.9815E+02 K
        Density                            1.0000E+00 kg/L
        Solvent mass                       1.8000E+01 g/mol
        Interaction kernel             P16
        Born radius scaling (c1)           1.5056E+00
        Born radii integrator          GBOBC
        Born offset                        0.0000E+00 a0       0.0000E+00 AA
        H-bond correction              true
        Ion screening                  false
        Surface tension                    1.0000E-05 Eh       1.5569E+01 dyn/cm
        Grid points                               230 per atom
          Number of HB bonds (bound hydrogen)     423
          Number of HB bonds (unbound hydrogen)   52
          Number of XB bonds                      0

 E+G (total)                   0 d,  0 h,  0 min,  0.001 sec
 distance/D3 list               ...        0 min,  0.000 sec (  0.241%)
 non bonded repulsion           ...        0 min,  0.000 sec (  1.626%)
 dCN                            ...        0 min,  0.000 sec (  4.348%)
 EEQ energy and q               ...        0 min,  0.000 sec (  4.038%)
 D3                             ...        0 min,  0.000 sec ( 15.560%)
 EEQ gradient                   ...        0 min,  0.000 sec (  6.734%)
 bonds                          ...        0 min,  0.000 sec (  1.249%)
 bend and torsion               ...        0 min,  0.000 sec (  5.283%)
 bonded ATM                     ...        0 min,  0.000 sec (  2.073%)
 HB/XB (incl list setup)        ...        0 min,  0.000 sec ( 10.104%)
 GBSA                           ...        0 min,  0.001 sec ( 52.714%)

         :::::::::::::::::::::::::::::::::::::::::::::::::::::
         ::                     SUMMARY                     ::
         :::::::::::::::::::::::::::::::::::::::::::::::::::::
         :: total energy              -7.489492555298 Eh    ::
         :: total w/o Gsolv           -7.440043699600 Eh    ::
         :: total w/o Gsasa/hb        -7.483224582417 Eh    ::
         :: gradient norm              0.168563453249 Eh/a0 ::
         ::.................................................::
         :: bond energy               -7.538703290526 Eh    ::
         :: angle energy               0.033864586280 Eh    ::
         :: torsion energy             0.022095515022 Eh    ::
         :: repulsion energy           0.457965532862 Eh    ::
         :: electrostat energy        -0.376699275721 Eh    ::
         :: dispersion energy         -0.028157130126 Eh    ::
         :: HB energy                 -0.000668033606 Eh    ::
         :: XB energy                  0.000000000000 Eh    ::
         :: bonded atm energy         -0.009741603785 Eh    ::
         :: external energy            0.000000000000 Eh    ::
         :: -> Gsolv                  -0.049448855698 Eh    ::
         ::    -> Gborn               -0.043180882817 Eh    ::
         ::    -> Gsasa                0.011660313333 Eh    ::
         ::    -> Ghb                 -0.018293225469 Eh    ::
         ::    -> Gshift               0.000364939255 Eh    ::
         :: add. restraining           0.000000000000 Eh    ::
         :: total charge              -0.000000000000 e     ::
         ::.................................................::
         :: atomisation energy         0.000000000000 Eh    ::
         :::::::::::::::::::::::::::::::::::::::::::::::::::::

      ----------------------------------------------------------- 
     |                   =====================                   |
     |                        A N C O P T                        |
     |                   =====================                   |
     |               Approximate Normal Coordinate               |
     |                Rational Function Optimizer                |
      ----------------------------------------------------------- 

          ...................................................
          :                      SETUP                      :
          :.................................................:
          :   optimization level         verytight          :
          :   max. optcycles                    10          :
          :   ANC micro-cycles                  10          :
          :   degrees of freedom               120          :
          :.................................................:
          :   RF solver                   davidson          :
          :   write xtbopt.log                true          :
          :   linear?                        false          :
          :   energy convergence         0.1000000E-06 Eh   :
          :   grad. convergence          0.2000000E-03 Eh/α :
          :   maxmium RF displ.          1.0000000          :
          :   Hlow (freq-cutoff)         0.1000000E-01      :
          :   Hmax (freq-cutoff)         5.0000000          :
          :   S6 in model hess.         20.0000000          :
          ...................................................

generating ANC from model Hessian ...
Using GFN-FF Lindh-Hessian
 Shifting diagonal of input Hessian by    0.0000000000000000     
 Lowest  eigenvalues of input Hessian
    0.000000    0.000000    0.000000    0.000000    0.000000    0.000000
    0.016274    0.018564    0.023253    0.025967    0.046324    0.050205
    0.060509    0.066655    0.073302    0.085740    0.089390    0.098700
 Highest eigenvalues
    3.652178    3.917886    4.016325    4.103354    4.228898    4.278500


........................................................................
.............................. CYCLE    1 ..............................
........................................................................
     iter. time                 ...        0 min,  0.001 sec
 * total energy  :    -7.4894926 Eh     change        0.0000000E+00 Eh
   gradient norm :     0.1685634 Eh/α   predicted     0.0000000E+00 (    NaN%)
   displ. norm   :     0.0873755 α      lambda       -0.1114196E-01
   maximum displ.:     0.0321068 α      in ANC's #48, #107, #45, ...

........................................................................
.............................. CYCLE    2 ..............................
........................................................................
     iter. time                 ...        0 min,  0.001 sec
 * total energy  :    -7.4969011 Eh     change       -0.7408516E-02 Eh
   gradient norm :     0.0617994 Eh/α   predicted    -0.5616178E-02 ( -24.19%)
   displ. norm   :     0.0566841 α      lambda       -0.2613307E-02
   maximum displ.:     0.0159605 α      in ANC's #35, #107, #48, ...

........................................................................
.............................. CYCLE    3 ..............................
........................................................................
     iter. time                 ...        0 min,  0.001 sec
 * total energy  :    -7.4983741 Eh     change       -0.1472998E-02 Eh
   gradient norm :     0.0167947 Eh/α   predicted    -0.1310882E-02 ( -11.01%)
   displ. norm   :     0.0258323 α      lambda       -0.2467801E-03
   maximum displ.:     0.0098282 α      in ANC's #22, #13, #37, ...

........................................................................
.............................. CYCLE    4 ..............................
........................................................................
     iter. time                 ...        0 min,  0.001 sec
 * total energy  :    -7.4985522 Eh     change       -0.1781116E-03 Eh
   gradient norm :     0.0091375 Eh/α   predicted    -0.1283399E-03 ( -27.94%)
   displ. norm   :     0.0216435 α      lambda       -0.1067866E-03
   maximum displ.:     0.0103484 α      in ANC's #22, #37, #44, ...

........................................................................
.............................. CYCLE    5 ..............................
........................................................................
     iter. time                 ...        0 min,  0.001 sec
 * total energy  :    -7.4986153 Eh     change       -0.6311130E-04 Eh
   gradient norm :     0.0034143 Eh/α   predicted    -0.5343093E-04 ( -15.34%)
   displ. norm   :     0.0083693 α      lambda       -0.1625573E-04
   maximum displ.:     0.0037237 α      in ANC's #22, #37, #44, ...

........................................................................
.............................. CYCLE    6 ..............................
........................................................................
     iter. time                 ...        0 min,  0.001 sec
 * total energy  :    -7.4986273 Eh     change       -0.1201017E-04 Eh
   gradient norm :     0.0023496 Eh/α   predicted    -0.8298735E-05 ( -30.90%)
   displ. norm   :     0.0088764 α      lambda       -0.1102603E-04
   maximum displ.:     0.0032825 α      in ANC's #37, #44, #3, ...

........................................................................
.............................. CYCLE    7 ..............................
........................................................................
     iter. time                 ...        0 min,  0.001 sec
 * total energy  :    -7.4986341 Eh     change       -0.6838430E-05 Eh
   gradient norm :     0.0016162 Eh/α   predicted    -0.5527248E-05 ( -19.17%)
   displ. norm   :     0.0059467 α      lambda       -0.1650697E-05
   maximum displ.:     0.0023035 α      in ANC's #3, #13, #2, ...

........................................................................
.............................. CYCLE    8 ..............................
........................................................................
     iter. time                 ...        0 min,  0.001 sec
 * total energy  :    -7.4986359 Eh     change       -0.1787989E-05 Eh
   gradient norm :     0.0008148 Eh/α   predicted    -0.1153701E-05 ( -35.47%)
   displ. norm   :     0.0025055 α      lambda       -0.4080157E-06
   maximum displ.:     0.0011740 α      in ANC's #3, #4, #2, ...

........................................................................
.............................. CYCLE    9 ..............................
........................................................................
     iter. time                 ...        0 min,  0.001 sec
 * total energy  :    -7.4986365 Eh     change       -0.5326414E-06 Eh
   gradient norm :     0.0003168 Eh/α   predicted    -0.2701864E-06 ( -49.27%)
   displ. norm   :     0.0032183 α      lambda       -0.2191673E-06
   maximum displ.:     0.0019646 α      in ANC's #3, #2, #4, ...

........................................................................
.............................. CYCLE   10 ..............................
........................................................................
     iter. time                 ...        0 min,  0.001 sec
 * total energy  :    -7.4986367 Eh     change       -0.2463872E-06 Eh
   gradient norm :     0.0002982 Eh/α   predicted    -0.1154330E-06 ( -53.15%)
   displ. norm   :     0.0054612 α      lambda       -0.1963392E-06
   maximum displ.:     0.0034874 α      in ANC's #3, #2, #4, ...

   *** FAILED TO CONVERGE GEOMETRY OPTIMIZATION IN 10 ITERATIONS ***


 ANCopt (total)                0 d,  0 h,  0 min,  0.009 sec
 optimizer setup                ...        0 min,  0.000 sec (  1.412%)
 model hessian                  ...        0 min,  0.001 sec (  5.766%)
 ANC generation                 ...        0 min,  0.001 sec ( 10.765%)
 coordinate transformation      ...        0 min,  0.000 sec (  0.394%)
 single point calculation       ...        0 min,  0.007 sec ( 72.204%)
 optimization log               ...        0 min,  0.000 sec (  4.924%)
 hessian update                 ...        0 min,  0.000 sec (  0.606%)
 rational function              ...        0 min,  0.000 sec (  2.304%)

================
 final structure:
================
ATOM      1  C   GLY A  11      -1.748 -11.434  -0.623  1.00  0.00           C  
ATOM      2  O   GLY A  11      -2.266 -12.217  -1.378  1.00  0.00           O  
ATOM      3  N   GLY A  12      -0.760 -10.575  -0.993  1.00  0.00           N  
ATOM      4  CA  GLY A  12      -0.374 -10.469  -2.384  1.00  0.00           C  
ATOM      5  C   GLY A  12      -0.772  -9.132  -2.953  1.00  0.00           C  
ATOM      6  O   GLY A  12      -1.833  -8.658  -2.601  1.00  0.00           O  
ATOM      7  H   GLY A  12      -0.520  -9.759  -0.425  1.00  0.00           H  
ATOM      8  HA2 GLY A  12       0.703 -10.638  -2.461  1.00  0.00           H  
ATOM      9  HA3 GLY A  12      -0.885 -11.267  -2.933  1.00  0.00           H  
ATOM     10  N   GLY A  13       0.024  -8.461  -3.863  1.00  0.00           N  
ATOM     11  CA  GLY A  13       1.319  -8.900  -4.374  1.00  0.00           C  
ATOM     12  C   GLY A  13       1.521  -8.475  -5.803  1.00  0.00           C  
ATOM     13  O   GLY A  13       0.575  -8.482  -6.561  1.00  0.00           O  
ATOM     14  H   GLY A  13      -0.335  -7.619  -4.305  1.00  0.00           H  
ATOM     15  HA2 GLY A  13       2.107  -8.502  -3.732  1.00  0.00           H  
ATOM     16  HA3 GLY A  13       1.372  -9.992  -4.334  1.00  0.00           H  
ATOM     17  N   GLY A  14       2.786  -8.119  -6.226  1.00  0.00           N  
ATOM     18  CA  GLY A  14       3.003  -7.600  -7.563  1.00  0.00           C  
ATOM     19  C   GLY A  14       3.163  -6.102  -7.546  1.00  0.00           C  
ATOM     20  O   GLY A  14       2.263  -5.459  -7.045  1.00  0.00           O  
ATOM     21  H   GLY A  14       3.537  -7.941  -5.559  1.00  0.00           H  
ATOM     22  HA2 GLY A  14       3.853  -8.108  -8.023  1.00  0.00           H  
ATOM     23  HA3 GLY A  14       2.116  -7.852  -8.155  1.00  0.00           H  
ATOM     24  N   GLY A  15       4.262  -5.429  -8.062  1.00  0.00           N  
ATOM     25  CA  GLY A  15       5.425  -5.996  -8.750  1.00  0.00           C  
ATOM     26  C   GLY A  15       5.411  -5.677 -10.221  1.00  0.00           C  
ATOM     27  O   GLY A  15       4.640  -6.272 -10.942  1.00  0.00           O  
ATOM     28  H   GLY A  15       4.221  -4.414  -8.101  1.00  0.00           H  
ATOM     29  HA2 GLY A  15       6.337  -5.611  -8.284  1.00  0.00           H  
ATOM     30  HA3 GLY A  15       5.450  -7.080  -8.620  1.00  0.00           H  
ATOM     31  N   GLY A  16       6.271  -4.713 -10.707  1.00  0.00           N  
ATOM     32  CA  GLY A  16       6.177  -4.244 -12.082  1.00  0.00           C  
ATOM     33  C   GLY A  16       5.791  -2.783 -12.123  1.00  0.00           C  
ATOM     34  O   GLY A  16       4.818  -2.446 -11.498  1.00  0.00           O  
ATOM     35  H   GLY A  16       6.775  -4.089 -10.075  1.00  0.00           H  
ATOM     36  HA2 GLY A  16       7.126  -4.435 -12.592  1.00  0.00           H  
ATOM     37  HA3 GLY A  16       5.406  -4.840 -12.579  1.00  0.00           H  
ATOM     38  N   GLY A  17       6.549  -1.851 -12.855  1.00  0.00           N  
ATOM     39  CA  GLY A  17       7.730  -2.013 -13.565  1.00  0.00           C  
ATOM     40  H   GLY A  17       6.178  -0.886 -12.857  1.00  0.00           H  
ATOM     41  HA2 GLY A  17       8.529  -2.331 -12.875  1.00  0.00           H  
ATOM     42  HA3 GLY A  17       7.657  -2.829 -14.291  1.00  0.00           H  
END

 Bond Distances (Angstroems)
 ---------------------------
C1-O2=1.2044         C1-N3=1.3610         O2-C1=1.2044         N3-C1=1.3610         N3-C4=1.4473         N3-H7=1.0231         
C4-N3=1.4473         C4-C5=1.5057         C4-H8=1.0934         C4-H9=1.0950         C5-C4=1.5057         C5-O6=1.2141         
C5-N10=1.3832        O6-C5=1.2141         H7-N3=1.0231         H8-C4=1.0934         H9-C4=1.0950         N10-C5=1.3832        
N10-C11=1.4597       N10-H14=1.0166       C11-N10=1.4597       C11-C12=1.5050       C11-H15=1.0918       C11-H16=1.0944       
C12-C11=1.5050       C12-O13=1.2122       C12-N17=1.3798       O13-C12=1.2122       H14-N10=1.0166       H15-C11=1.0918       
H16-C11=1.0944       N17-C12=1.3798       N17-C18=1.4509       N17-H21=1.0206       C18-N17=1.4509       C18-C19=1.5064       
C18-H22=1.0919       C18-H23=1.0961       C19-C18=1.5064       C19-O20=1.2143       C19-N24=1.3875       O20-C19=1.2143       
H21-N17=1.0206       H22-C18=1.0919       H23-C18=1.0961       N24-C19=1.3875       N24-C25=1.4650       N24-H28=1.0166       
C25-N24=1.4650       C25-C26=1.5049       C25-H29=1.0940       C25-H30=1.0919       C26-C25=1.5049       C26-O27=1.2123       
C26-N31=1.3803       O27-C26=1.2123       H28-N24=1.0166       H29-C25=1.0940       H30-C25=1.0919       N31-C26=1.3803       
N31-C32=1.4560       N31-H35=1.0209       C32-N31=1.4560       C32-C33=1.5120       C32-H36=1.0940       C32-H37=1.0942       
C33-C32=1.5120       C33-O34=1.2040       C33-N38=1.4073       O34-C33=1.2040       H35-N31=1.0209       H36-C32=1.0940       
H37-C32=1.0942       N38-C33=1.4073       N38-C39=1.3875       N38-H40=1.0338       C39-N38=1.3875       C39-H41=1.1027       
C39-H42=1.0944       H40-N38=1.0338       H41-C39=1.1027       H42-C39=1.0944       
 C  H  Rav=1.0945 sigma=0.0028  Rmin=1.0918  Rmax=1.1027    12
 C  C  Rav=1.5068 sigma=0.0026  Rmin=1.5049  Rmax=1.5120     5
 N  H  Rav=1.0219 sigma=0.0058  Rmin=1.0166  Rmax=1.0338     6
 N  C  Rav=1.4138 sigma=0.0370  Rmin=1.3610  Rmax=1.4650    12
 O  C  Rav=1.2102 sigma=0.0043  Rmin=1.2040  Rmax=1.2143     6

 selected bond angles (degree)
 --------------------
N3-C1-O2=123.48                C4-N3-C1=120.09                H7-N3-C1=121.54                H7-N3-C4=114.39                
C5-C4-N3=110.95                H8-C4-N3=108.60                H8-C4-C5=111.80                H9-C4-N3=107.68                
H9-C4-C5=109.55                H9-C4-H8=108.14                O6-C5-C4=117.92                N10-C5-C4=121.83               
N10-C5-O6=120.25               C11-N10-C5=126.49              H14-N10-C5=119.02              H14-N10-C11=114.23             

 selected dihedral angles (degree)
 ---------------------------------
C4-N3-C1-O2=  6.50            H7-N3-C1-O2=162.79            C5-C4-N3-C1=111.20            C5-C4-N3-H7=313.29            
H8-C4-N3-C1=234.44            H8-C4-N3-H7= 76.54            H9-C4-N3-C1=351.32            H9-C4-N3-H7=193.41            
O6-C5-C4-N3=321.97            O6-C5-C4-H8=200.58            O6-C5-C4-H9= 80.73            N10-C5-C4-N3=142.88           
N10-C5-C4-H8= 21.49           N10-C5-C4-H9=261.64           C11-N10-C5-C4=358.86          C11-N10-C5-O6=179.79          
H14-N10-C5-C4=172.61          H14-N10-C5-O6=353.54          
           -------------------------------------------------
          |                Final Singlepoint                |
           -------------------------------------------------
         :::::::::::::::::::::::::::::::::::::::::::::::::::::
         ::                     SUMMARY                     ::
         :::::::::::::::::::::::::::::::::::::::::::::::::::::
         :: total energy              -7.498636996336 Eh    ::
         :: total w/o Gsolv           -7.449475041621 Eh    ::
         :: total w/o Gsasa/hb        -7.492559515558 Eh    ::
         :: gradient norm              0.000387392882 Eh/a0 ::
         ::.................................................::
         :: bond energy               -7.557883594034 Eh    ::
         :: angle energy               0.033459505395 Eh    ::
         :: torsion energy             0.025242919732 Eh    ::
         :: repulsion energy           0.461459192542 Eh    ::
         :: electrostat energy        -0.377089812805 Eh    ::
         :: dispersion energy         -0.028165422305 Eh    ::
         :: HB energy                 -0.000655240601 Eh    ::
         :: XB energy                  0.000000000000 Eh    ::
         :: bonded atm energy         -0.009535395484 Eh    ::
         :: external energy            0.000000000000 Eh    ::
         :: -> Gsolv                  -0.049161954715 Eh    ::
         ::    -> Gborn               -0.043084473937 Eh    ::
         ::    -> Gsasa                0.011694462500 Eh    ::
         ::    -> Ghb                 -0.018136882533 Eh    ::
         ::    -> Gshift               0.000364939255 Eh    ::
         :: add. restraining           0.003692805939 Eh    ::
         :: total charge               0.000000000000 e     ::
         ::.................................................::
         :: atomisation energy         0.000000000000 Eh    ::
         :::::::::::::::::::::::::::::::::::::::::::::::::::::

           -------------------------------------------------
          |                Property Printout                |
           -------------------------------------------------
           -------------------------------------------------
          |                Geometry Summary                 |
           -------------------------------------------------

      molecular mass/u    :      342.3084131
   center of mass at/Å    :        2.6569188      -6.8907406      -7.1182893
  moments of inertia/u·Å² :        0.4323654E+03   0.1108631E+05   0.1123882E+05
rotational constants/cm⁻¹ :        0.3898931E-01   0.1520581E-02   0.1499947E-02

 * 34 selected distances

     #   Z          #   Z                                           value/Å
     1   6  C       3   7  N                                      1.3610019
     3   7  N       4   6  C                                      1.4472521
     5   6  C       6   8  O                                      1.2140721
     3   7  N       7   1  H                                      1.0230977
     4   6  C       8   1  H                                      1.0934329
     4   6  C       9   1  H                                      1.0949682
     5   6  C      10   7  N                                      1.3831604
    10   7  N      11   6  C                                      1.4597150
    12   6  C      13   8  O                                      1.2121545
    10   7  N      14   1  H                                      1.0165589 (min)
    11   6  C      15   1  H                                      1.0918352
    11   6  C      16   1  H                                      1.0943545
    12   6  C      17   7  N                                      1.3797581
    17   7  N      18   6  C                                      1.4508652
    19   6  C      20   8  O                                      1.2143222
    17   7  N      21   1  H                                      1.0205913
    18   6  C      22   1  H                                      1.0919177
    18   6  C      23   1  H                                      1.0961355
    19   6  C      24   7  N                                      1.3875102
    24   7  N      25   6  C                                      1.4650228 (max)
    26   6  C      27   8  O                                      1.2122962
    24   7  N      28   1  H                                      1.0166401
    25   6  C      29   1  H                                      1.0939659
    25   6  C      30   1  H                                      1.0919124
    26   6  C      31   7  N                                      1.3803076
    31   7  N      32   6  C                                      1.4559641
    33   6  C      34   8  O                                      1.2039789
    31   7  N      35   1  H                                      1.0209250
    32   6  C      36   1  H                                      1.0939714
    32   6  C      37   1  H                                      1.0941568
    33   6  C      38   7  N                                      1.4072815
    38   7  N      39   6  C                                      1.3874883
    38   7  N      40   1  H                                      1.0338261
    39   6  C      42   1  H                                      1.0944127

 * 4 distinct bonds (by element types)

   Z      Z             #   av. dist./Å        max./Å        min./Å
   1 H    6 C          11     1.0937330     1.0961355     1.0918352
   1 H    7 N           6     1.0219399     1.0338261     1.0165589
   6 C    7 N          12     1.4137773     1.4650228     1.3610019
   6 C    8 O           5     1.2113648     1.2143222     1.2039789


optimized geometry written to: xtbopt.pdb


           -------------------------------------------------
          | TOTAL ENERGY               -7.498636996336 Eh   |
          | GRADIENT NORM               0.000387392882 Eh/α |
           -------------------------------------------------
########################################################################
[WARNING] Runtime exception occurred
-1- gfnff_setup: Could not read topology file.
########################################################################

------------------------------------------------------------------------
 unit  open   action     filename
   10 false : read       xtb_settings.inp
   10 false : read       substructure_37.pdb
   10 false : read       xtb_settings.inp
   10 false : written    gfnff_topo
   10 false : written    gfnff_adjacency
   10 false : written    gfnff_charges
   10 false : deleted    .xtboptok
   10 false : replaced   xtbopt.log
   11 false : created    .xtboptok
   11 false : replaced   gfnff_charges
   10 false : replaced   xtbopt.pdb

------------------------------------------------------------------------
 * finished run on 2025/05/27 at 09:37:47.721     
------------------------------------------------------------------------
 total:
 * wall-time:     0 d,  0 h,  0 min,  0.015 sec
 *  cpu-time:     0 d,  0 h,  0 min,  0.015 sec
 * ratio c/w:     0.999 speedup
 SCF:
 * wall-time:     0 d,  0 h,  0 min,  0.001 sec
 *  cpu-time:     0 d,  0 h,  0 min,  0.001 sec
 * ratio c/w:     0.993 speedup
 ANC optimizer:
 * wall-time:     0 d,  0 h,  0 min,  0.010 sec
 *  cpu-time:     0 d,  0 h,  0 min,  0.010 sec
 * ratio c/w:     1.000 speedup

