      -----------------------------------------------------------      
     |                   =====================                   |     
     |                           x T B                           |     
     |                   =====================                   |     
     |                         S. Grimme                         |     
     |          Mulliken Center for Theoretical Chemistry        |     
     |                    University of Bonn                     |     
      -----------------------------------------------------------      

   * xtb version 6.6.1 (8d0f1dd) compiled by 'conda@1efc2f54142f' on 2023-08-01

   xtb is free software: you can redistribute it and/or modify it under
   the terms of the GNU Lesser General Public License as published by
   the Free Software Foundation, either version 3 of the License, or
   (at your option) any later version.
   
   xtb is distributed in the hope that it will be useful,
   but WITHOUT ANY WARRANTY; without even the implied warranty of
   MERCHANTABILITY or FITNESS FOR A PARTICULAR PURPOSE.  See the
   GNU Lesser General Public License for more details.
   
   Cite this work as:
   * C. Bannwarth, E. Caldeweyher, S. Ehlert, A. Hansen, P. Pracht,
     J. Seibert, S. Spicher, S. Grimme, WIREs Comput. Mol. Sci., 2020, 11,
     e01493. DOI: 10.1002/wcms.1493
   
   for GFN2-xTB:
   * C. Bannwarth, S. Ehlert and S. Grimme., J. Chem. Theory Comput., 2019,
     15, 1652-1671. DOI: 10.1021/acs.jctc.8b01176
   for GFN1-xTB:
   * S. Grimme, C. Bannwarth, P. Shushkov, J. Chem. Theory Comput., 2017,
     13, 1989-2009. DOI: 10.1021/acs.jctc.7b00118
   for GFN0-xTB:
   * P. Pracht, E. Caldeweyher, S. Ehlert, S. Grimme, ChemRxiv, 2019, preprint.
     DOI: 10.26434/chemrxiv.8326202.v1
   for GFN-FF:
   * S. Spicher and S. Grimme, Angew. Chem. Int. Ed., 2020, 59, 15665-15673.
     DOI: 10.1002/anie.202004239
   
   for ALPB and GBSA implicit solvation:
   * S. Ehlert, M. Stahn, S. Spicher, S. Grimme, J. Chem. Theory Comput.,
     2021, 17, 4250-4261. DOI: 10.1021/acs.jctc.1c00471
   
   for DFT-D4:
   * E. Caldeweyher, C. Bannwarth and S. Grimme, J. Chem. Phys., 2017,
     147, 034112. DOI: 10.1063/1.4993215
   * E. Caldeweyher, S. Ehlert, A. Hansen, H. Neugebauer, S. Spicher,
     C. Bannwarth and S. Grimme, J. Chem. Phys., 2019, 150, 154122.
     DOI: 10.1063/1.5090222
   * E. Caldeweyher, J.-M. Mewes, S. Ehlert and S. Grimme, Phys. Chem. Chem. Phys.
     2020, 22, 8499-8512. DOI: 10.1039/D0CP00502A
   
   for sTDA-xTB:
   * S. Grimme and C. Bannwarth, J. Chem. Phys., 2016, 145, 054103.
     DOI: 10.1063/1.4959605
   
   in the mass-spec context:
   * V. Asgeirsson, C. Bauer and S. Grimme, Chem. Sci., 2017, 8, 4879.
     DOI: 10.1039/c7sc00601b
   * J. Koopman and S. Grimme, ACS Omega 2019, 4, 12, 15120-15133.
     DOI: 10.1021/acsomega.9b02011
   
   for metadynamics refer to:
   * S. Grimme, J. Chem. Theory Comput., 2019, 155, 2847-2862
     DOI: 10.1021/acs.jctc.9b00143
   
   for SPH calculations refer to:
   * S. Spicher and S. Grimme, J. Chem. Theory Comput., 2021, 17, 1701-1714
     DOI: 10.1021/acs.jctc.0c01306
   
   with help from (in alphabetical order)
   P. Atkinson, C. Bannwarth, F. Bohle, G. Brandenburg, E. Caldeweyher
   M. Checinski, S. Dohm, S. Ehlert, S. Ehrlich, I. Gerasimov, C. Hölzer
   A. Katbashev, J. Koopman, C. Lavigne, S. Lehtola, F. März, M. Müller,
   F. Musil, H. Neugebauer, J. Pisarek, C. Plett, P. Pracht, F. Pultar,
   J. Seibert, P. Shushkov, S. Spicher, M. Stahn, M. Steiner, T. Strunk,
   J. Stückrath, T. Rose, and J. Unsleber
   
 * started run on 2025/05/27 at 09:37:30.401     

           -------------------------------------------------
          |                Calculation Setup                |
           -------------------------------------------------

          program call               : xtb substructure_1.pdb --gfnff --input xtb_settings.inp --opt vtight --alpb water --verbose
          coordinate file            : substructure_1.pdb
          xtbhome directory          : /home/dargen3
          path for xtb               : /home/dargen3
          xcontrol input file        : xtb_settings.inp
          omp threads                :                     1

$$$$$$$$$$$$$$$$$$$$$$$$$$$$$$$$$$$$$$$$$$$$$$$$$$$$$$$$$$$$$$$$$$$$$$$$
 CONSTRAINTS & SCANS: DEBUG SECTION
$$$$$$$$$$$$$$$$$$$$$$$$$$$$$$$$$$$$$$$$$$$$$$$$$$$$$$$$$$$$$$$$$$$$$$$$
   ID    Z sym.   atoms
    1    6  C     1, 4, 5, 11, 12, 18, 19, 25, 26, 32, 33, 39
    2    8  O     2, 6, 13, 20, 27, 34
    3    7  N     3, 10, 17, 24, 31, 38
    4    1  H     7-9, 14-16, 21-23, 28-30, 35-37, 40-42
> constrain
-> atoms: 1, 2, 3, 4, 5, 6, 7, 8, 9, 10, 11, 12, 13, 14, 15, 16, 18, 24, 25, 26, 27, 28, 29, 30, 31, 32, 33, 34, 35, 36, 37, 38, 39, 40, 41, 42
--> 1: 1
--> 2: 2
--> 3: 3
--> 4: 4
--> 5: 5
--> 6: 6
--> 7: 7
--> 8: 8
--> 9: 9
--> 10: 10
--> 11: 11
--> 12: 12
--> 13: 13
--> 14: 14
--> 15: 15
--> 16: 16
--> 17: 18
--> 18: 24
--> 19: 25
--> 20: 26
--> 21: 27
--> 22: 28
--> 23: 29
--> 24: 30
--> 25: 31
--> 26: 32
--> 27: 33
--> 28: 34
--> 29: 35
--> 30: 36
--> 31: 37
--> 32: 38
--> 33: 39
--> 34: 40
--> 35: 41
--> 36: 42
-> force constant=1.0
$$$$$$$$$$$$$$$$$$$$$$$$$$$$$$$$$$$$$$$$$$$$$$$$$$$$$$$$$$$$$$$$$$$$$$$$
           -------------------------------------------------
          |                   Constraints                   |
           -------------------------------------------------

 * 36 constrained atom positions
   positions refering to input geometry

     #   Z                                   position/Å      displ./Å
     1   6 C     -2.0450002   -11.2290010    -0.7100001     0.0000000
     2   8 O     -2.8540003   -11.6060011    -1.5280001     0.0000000
     3   7 N     -0.7770001   -10.7380010    -1.0400001     0.0000000
     4   6 C     -0.3730000   -10.4770010    -2.3880002     0.0000000
     5   6 C     -0.6980001    -9.0840008    -2.8060003     0.0000000
     6   8 O     -1.6840002    -8.5490008    -2.3310002     0.0000000
     7   1 H     -0.1150000   -10.4110010    -0.3330000     0.0000000
     8   1 H      0.6570001   -10.7540010    -2.5750002     0.0000000
     9   1 H     -1.0000001   -11.1600010    -3.0210003     0.0000000
    10   7 N      0.1020000    -8.3810008    -3.7660003     0.0000000
    11   6 C      1.3240001    -8.8870008    -4.3620004     0.0000000
    12   6 C      1.4150001    -8.2750008    -5.7600005     0.0000000
    13   8 O      0.4260000    -7.9490007    -6.3770006     0.0000000
    14   1 H     -0.2850000    -7.5920007    -4.2850004     0.0000000
    15   1 H      2.1580002    -8.6820008    -3.7710003     0.0000000
    16   1 H      1.2090001    -9.9910009    -4.5070004     0.0000000
    18   6 C      3.0050003    -7.6070007    -7.5660007     0.0000000
    24   7 N      4.3960004    -5.4600005    -7.9170007     0.0000000
    25   6 C      5.4280005    -5.9890006    -8.7440008     0.0000000
    26   6 C      5.2260005    -5.6230005   -10.2200009     0.0000000
    27   8 O      4.3340004    -6.0910006   -10.8900010     0.0000000
    28   1 H      4.3870004    -4.4450004    -7.9540007     0.0000000
    29   1 H      6.4040006    -5.7360005    -8.4130008     0.0000000
    30   1 H      5.3970005    -7.1200007    -8.7180008     0.0000000
    31   7 N      6.2000006    -4.7470004   -10.7240010     0.0000000
    32   6 C      6.1780006    -4.2520004   -12.0880011     0.0000000
    33   6 C      5.7780005    -2.8220003   -12.1350011     0.0000000
    34   8 O      4.7440004    -2.5120002   -11.5790011     0.0000000
    35   1 H      6.9160006    -4.3270004   -10.1320009     0.0000000
    36   1 H      7.1510007    -4.4240004   -12.5650012     0.0000000
    37   1 H      5.4370005    -4.8540005   -12.6330012     0.0000000
    38   7 N      6.5190006    -1.8160002   -12.8690012     0.0000000
    39   6 C      7.7600007    -2.0220002   -13.5740013     0.0000000
    40   1 H      6.0740006    -0.9290001   -13.0880012     0.0000000
    41   1 H      8.5750008    -2.1070002   -12.8960012     0.0000000
    42   1 H      7.6720007    -3.0120003   -14.1130013     0.0000000

     applying 630 atom pairwise harmonic potentials
       applied force constant per pair:     0.0285714
     effective force constant per atom:     1.0000000
         constraining energy/grad norm:     0.0000000     0.0000000

     total constraint energy/grad norm:     0.0000000     0.0000000

          charge from pdb residues: 0

          entering GFN-FF setup routine... 42

          ==================== Thresholds ====================
          CN  :   150.00000
          rep :   500.00000
          disp:  2500.00000
          HB1 :   250.00000
          HB2 :   450.00000

          Pauling EN used:
          Z : 1  EN :  2.20
          Z : 6  EN :  2.55
          Z : 7  EN :  3.04
          Z : 8  EN :  3.44
          electric field strengths (au): 0.000

           ------------------------------------------------- 
          |           Force Field Initialization            |
           ------------------------------------------------- 

          distances ...
          ----------------------------------------
          generating topology and atomic info file ...
          pair mat ...
          computing topology distances matrix with Floyd-Warshall algo ...
          making topology EEQ charges ...
          #fragments for EEQ constrain from pdb file: 7
          ----------------------------------------
          generating topology and atomic info file ...
          pair mat ...
          computing topology distances matrix with Floyd-Warshall algo ...
          making topology EEQ charges ...
          #fragments for EEQ constrain from pdb file: 7
          rings ...
          # BATM   334
          # H in HB   18
          doing iterative Hueckel for 6 subsystem(s) ...
          iterative Hueckel run to get P ...
Hueckel system :  1 charge :   0 ndim/Nel :    3    3   eps(HOMO/LUMO)   -0.953545   -0.953545
Hueckel system :  2 charge :   0 ndim/Nel :    3    4   eps(HOMO/LUMO)   -0.911563   -0.911563
Hueckel system :  3 charge :   0 ndim/Nel :    3    4   eps(HOMO/LUMO)   -0.911539   -0.911539
Hueckel system :  4 charge :   0 ndim/Nel :    3    4   eps(HOMO/LUMO)   -0.912604   -0.912604
Hueckel system :  5 charge :   0 ndim/Nel :    3    4   eps(HOMO/LUMO)   -0.910014   -0.910014
Hueckel system :  6 charge :   0 ndim/Nel :    4    5   eps(HOMO/LUMO)    1.305314    1.305314
WARNING: probably wrong pi occupation for system 6. Second attempt with Nel=Nel-1!
 at,nb,topo%hyb,Npiel:          33  C             3           2           1
 at,nb,topo%hyb,Npiel:          34  O             1           2           1
 at,nb,topo%hyb,Npiel:          38  N             3           3           2
 at,nb,topo%hyb,Npiel:          39  C             3           2           1

          eigenvalues
 #    :           1          2          3          4
 occ. :        2.000      1.987      0.013      0.000
 eps  :        -4.349     -2.183      1.305      3.389
Hueckel system :  6 charge :   0 ndim/Nel :    4    4   eps(HOMO/LUMO)   -2.182830    1.305314

  atom   neighbors  erfCN metchar sp-hybrid imet pi  qest     coordinates
    1   C      2    1.93   0.00        -2    0    1   0.120   -3.864490  -21.219735   -1.341706
    2   O      1    0.98   0.00         2    0    1  -0.120   -5.393278  -21.932161   -2.887502
    3   N      3    2.79   0.00        -3    0    1  -0.166   -1.468317  -20.291879   -1.965315
    4   C      4    3.49   0.00         3    0    0   0.005   -0.704868  -19.798661   -4.512666
    5   C      3    2.79   0.00         2    0    1   0.174   -1.319029  -17.166272   -5.302572
    6   O      1    0.98   0.00         2    0    1  -0.352   -3.182299  -16.155269   -4.404952
    7   H      1    0.98   0.00         0    0    0   0.153   -0.217319  -19.673939   -0.629279
    8   H      1    0.97   0.00         0    0    0   0.093    1.241550  -20.322115   -4.866045
    9   H      1    0.97   0.01         0    0    0   0.093   -1.889726  -21.089344   -5.708863
   10   N      3    2.79   0.00        -3    0    1  -0.168    0.192752  -15.837795   -7.116709
   11   C      4    3.49   0.00         3    0    0   0.006    2.501997  -16.793996   -8.242985
   12   C      3    2.80   0.00         2    0    1   0.174    2.673962  -15.637484  -10.884822
   13   O      1    0.98   0.00         2    0    1  -0.352    0.805023  -15.021433  -12.050783
   14   H      1    0.98   0.00         0    0    0   0.155   -0.538572  -14.346801   -8.097476
   15   H      1    0.98   0.00         0    0    0   0.092    4.078029  -16.406602   -7.126157
   16   H      1    0.97   0.01         0    0    0   0.092    2.284679  -18.880254   -8.516996
   17   N      3    2.79   0.00        -3    0    1  -0.168    5.111709  -15.514651  -11.880708
   18   C      4    3.49   0.00         3    0    0   0.006    5.678627  -14.375147  -14.297668
   19   C      3    2.79   0.00         2    0    1   0.175    6.075469  -11.587801  -14.014209
   20   O      1    0.98   0.00         2    0    1  -0.353    4.478651  -10.376486  -12.886042
   21   H      1    0.98   0.00         0    0    0   0.154    6.648057  -16.081569  -10.862146
   22   H      1    0.97   0.00         0    0    0   0.093    7.186628  -15.320010  -15.291664
   23   H      1    0.97   0.01         0    0    0   0.093    3.943858  -14.632149  -15.478747
   24   N      3    2.79   0.00        -3    0    1  -0.165    8.307236  -10.317905  -14.960962
   25   C      4    3.49   0.00         3    0    0   0.004   10.257433  -11.317570  -16.523765
   26   C      3    2.79   0.00         2    0    1   0.178    9.875709  -10.625930  -19.313001
   27   O      1    0.98   0.00         2    0    1  -0.354    8.190073  -11.510322  -20.579117
   28   H      1    0.98   0.00         0    0    0   0.150    8.290229   -8.399833  -15.030882
   29   H      1    0.98   0.00         0    0    0   0.093   12.101806  -10.839469  -15.898266
   30   H      1    0.97   0.01         0    0    0   0.093   10.198852  -13.454850  -16.474632
   31   N      3    2.79   0.00        -3    0    1  -0.170   11.716302   -8.970530  -20.265423
   32   C      4    3.49   0.00         3    0    0   0.006   11.674728   -8.035115  -22.843009
   33   C      3    2.79   0.00         2    0    1   0.195   10.918838   -5.332807  -22.931827
   34   O      1    0.98   0.00         2    0    1  -0.357    8.964861   -4.746992  -21.881139
   35   H      1    0.98   0.00         0    0    0   0.147   13.069346   -8.176845  -19.146705
   36   H      1    0.97   0.00         0    0    0   0.090   13.513432   -8.360148  -23.744409
   37   H      1    0.97   0.01         0    0    0   0.090   10.274441   -9.172731  -23.872910
   38   N      3    2.79   0.00         3    0    1  -0.226   12.319125   -3.431743  -24.318885
   39   C      3    2.78   0.00         2    0    1  -0.008   14.664275   -3.821026  -25.651142
   40   H      1    0.98   0.00         0    0    0   0.123   11.478196   -1.755556  -24.732736
   41   H      1    0.98   0.00         0    0    0   0.055   16.204402   -3.981653  -24.369908
   42   H      1    0.97   0.01         0    0    0   0.055   14.497979   -5.691855  -26.669705

molecular fragment  # atoms  topo charge
       1             2            -0.000
       2             7            -0.000
       3             7            -0.000
       4             7            -0.000
       5             7             0.000
       6             7            -0.000
       7             5             0.000


          #atoms :   42
          #bonds :   41

 bond atoms        type  in ring    R      R0    piBO    fqq  kbond(tot)  alp
 O  C     2    1      2    0     1.211   0.995   0.799   1.047  -0.252   0.584
 N  C     3    1      2    0     1.399   1.214   0.504   1.047  -0.235   0.524
 C  N     4    3      1    0     1.431   1.326 -99.000   1.033  -0.151   0.496
 C  C     5    4      1    0     1.490   1.332 -99.000   1.013  -0.162   0.475
 O  C     6    5      2    0     1.218   1.031   0.856   1.047  -0.262   0.584
 H  N     7    3      1    0     1.022   0.890 -99.000   1.047  -0.176   0.551
 H  C     8    4      1    0     1.083   0.976 -99.000   1.018  -0.164   0.482
 H  C     9    4      1    0     1.123   0.976 -99.000   1.018  -0.164   0.482
 N  C    10    5      2    0     1.434   1.263   0.503   1.047  -0.234   0.524
 C  N    11   10      1    0     1.451   1.326 -99.000   1.035  -0.151   0.496
 C  C    12   11      1    0     1.529   1.332 -99.000   1.011  -0.162   0.475
 O  C    13   12      2    0     1.210   1.031   0.856   1.047  -0.262   0.584
 H  N    14   10      1    0     1.021   0.890 -99.000   1.047  -0.176   0.551
 H  C    15   11      1    0     1.043   0.977 -99.000   1.017  -0.164   0.482
 H  C    16   11      1    0     1.119   0.976 -99.000   1.017  -0.164   0.482
 N  C    17   12      2    0     1.395   1.263   0.503   1.047  -0.234   0.524
 C  N    18   17      1    0     1.445   1.326 -99.000   1.034  -0.151   0.496
 C  C    19   18      1    0     1.497   1.332 -99.000   1.012  -0.162   0.475
 O  C    20   19      2    0     1.217   1.031   0.856   1.047  -0.262   0.584
 H  N    21   17      1    0     1.021   0.890 -99.000   1.047  -0.176   0.551
 H  C    22   18      1    0     1.079   0.976 -99.000   1.017  -0.164   0.482
 H  C    23   18      1    0     1.119   0.976 -99.000   1.017  -0.164   0.482
 N  C    24   19      2    0     1.448   1.262   0.503   1.047  -0.234   0.524
 C  N    25   24      1    0     1.424   1.325 -99.000   1.031  -0.151   0.496
 C  C    26   25      1    0     1.534   1.331 -99.000   1.015  -0.163   0.475
 O  C    27   26      2    0     1.210   1.030   0.856   1.047  -0.262   0.584
 H  N    28   24      1    0     1.016   0.890 -99.000   1.047  -0.176   0.551
 H  C    29   25      1    0     1.061   0.976 -99.000   1.019  -0.164   0.482
 H  C    30   25      1    0     1.132   0.975 -99.000   1.019  -0.164   0.482
 N  C    31   26      2    0     1.404   1.263   0.504   1.047  -0.234   0.524
 C  N    32   31      1    0     1.451   1.326 -99.000   1.034  -0.151   0.496
 C  C    33   32      1    0     1.486   1.332 -99.000   1.011  -0.162   0.475
 O  C    34   33      2    0     1.214   1.018   0.930   1.047  -0.274   0.584
 H  N    35   31      1    0     1.020   0.890 -99.000   1.047  -0.176   0.551
 H  C    36   32      1    0     1.097   0.976 -99.000   1.018  -0.164   0.482
 H  C    37   32      1    0     1.099   0.976 -99.000   1.018  -0.164   0.482
 N  C    38   33      2    0     1.449   1.291   0.346   1.047  -0.203   0.524
 C  N    39   38      2    0     1.442   1.189   0.906   1.006  -0.302   0.524
 H  N    40   38      1    0     1.016   0.890 -99.000   1.047  -0.176   0.551
 H  C    41   39      1    0     1.064   0.950 -99.000   1.029  -0.179   0.490
 H  C    42   39      1    0     1.131   0.949 -99.000   1.029  -0.179   0.490
          #angl  :   67

 angle atoms        phi0    phi      FC  pi rings
    1    3    2   145.000 123.744   0.082 F   0
    3    4    1   115.000 122.815   0.411 F   0
    3    7    1   115.000 122.411   0.335 F   0
    3    7    4   104.000 114.221   0.182 F   0
    4    5    3   109.500 111.906   0.307 F   0
    4    8    3   109.500 112.612   0.253 F   0
    4    8    5   109.500 113.460   0.251 F   0
    4    9    3   109.500 105.216   0.253 F   0
    4    9    5   109.500 106.782   0.251 F   0
    4    9    8   108.600 106.155   0.209 F   0
    5    6    4   120.000 118.533   0.178 F   0
    5   10    4   120.000 121.630   0.243 F   0
    5   10    6   120.000 119.824   0.177 F   0
   10   11    5   115.000 125.033   0.409 F   0
   10   14    5   115.000 120.527   0.333 F   0
   10   14   11   104.000 112.342   0.182 F   0
   11   12   10   109.500 106.630   0.307 F   0
   11   15   10   109.500 111.862   0.253 F   0
   11   15   12   109.500 113.082   0.252 F   0
   11   16   10   109.500 108.100   0.253 F   0
   11   16   12   109.500 106.408   0.252 F   0
   11   16   15   108.600 110.460   0.209 F   0
   12   13   11   120.000 121.689   0.178 F   0
   12   17   11   120.000 114.781   0.243 F   0
   12   17   13   120.000 123.398   0.177 F   0
   17   18   12   115.000 123.067   0.409 F   0
   17   21   12   115.000 121.564   0.333 F   0
   17   21   18   104.000 115.126   0.182 F   0
   18   19   17   109.500 110.572   0.307 F   0
   18   22   17   109.500 113.057   0.253 F   0
   18   22   19   109.500 113.685   0.251 F   0
   18   23   17   109.500 105.859   0.253 F   0
   18   23   19   109.500 106.903   0.251 F   0
   18   23   22   108.600 106.156   0.209 F   0
   19   20   18   120.000 118.070   0.178 F   0
   19   24   18   120.000 122.465   0.243 F   0
   19   24   20   120.000 119.438   0.176 F   0
   24   25   19   115.000 128.270   0.409 F   0
   24   28   19   115.000 117.974   0.334 F   0
   24   28   25   104.000 110.880   0.182 F   0
   25   26   24   109.500 112.001   0.307 F   0
   25   29   24   109.500 113.373   0.253 F   0
   25   29   26   109.500 111.366   0.251 F   0
   25   30   24   109.500 109.753   0.253 F   0
   25   30   26   109.500 104.888   0.251 F   0
   25   30   29   108.600 104.850   0.209 F   0
   26   27   25   120.000 122.524   0.178 F   0
   26   31   25   120.000 113.767   0.242 F   0
   26   31   27   120.000 123.657   0.176 F   0
   31   32   26   115.000 122.674   0.409 F   0
   31   35   26   115.000 122.407   0.333 F   0
   31   35   32   104.000 114.575   0.182 F   0
   32   33   31   109.500 111.232   0.307 F   0
   32   36   31   109.500 109.981   0.253 F   0
   32   36   33   109.500 112.080   0.251 F   0
   32   37   31   109.500 106.822   0.253 F   0
   32   37   33   109.500 109.265   0.251 F   0
   32   37   36   108.600 107.240   0.209 F   0
   33   34   32   120.000 117.422   0.177 F   0
   33   38   32   120.000 123.132   0.241 F   0
   33   38   34   120.000 119.350   0.174 F   0
   38   39   33   113.000 126.052   0.042 F   0
   38   40   33   113.000 119.418   0.211 F   0
   38   40   39   113.000 113.339   0.105 F   0
   39   41   38   120.000 111.052   0.204 F   0
   39   42   38   120.000 106.927   0.204 F   0
   39   42   41   120.000 107.072   0.167 F   0
 torsion atoms        nrot   rings    phi0    phi      FC
    3    1    4    2   2      0     180.000   8.034   0.765
    3    1    7    2   2      0     180.000 179.006   1.135
    4    3    5    1   3      0     180.000  89.585   0.024
    4    3    5    7   3      0     180.000  82.062   0.032
    4    3    8    1   3      0     180.000 141.194   0.034
    4    3    8    7   3      0     180.000  47.158   0.045
    4    3    9    1   3      0     180.000  26.002   0.034
    4    3    9    7   3      0     180.000 162.350   0.045
    5    4    6    3   3      0     180.000  31.658   0.066
    5    4    6    8   3      0     180.000 160.433   0.115
    5    4    6    9   3      0     180.000  82.971   0.115
    5    4   10    3   3      0     180.000 149.671   0.041
    5    4   10    8   3      0     180.000  20.895   0.072
    5    4   10    9   3      0     180.000  95.700   0.072
   10    5   11    4   2      0     180.000   3.917   0.614
   10    5   11    6   2      0     180.000 177.428   0.833
   10    5   14    4   2      0     180.000 158.325   0.911
   10    5   14    6   2      0     180.000  20.330   1.235
   11   10   12    5   3      0     180.000 149.709   0.022
   11   10   12   14   3      0     180.000  13.789   0.032
   11   10   15    5   3      0     180.000  86.185   0.032
   11   10   15   14   3      0     180.000 110.317   0.045
   11   10   16    5   3      0     180.000  35.644   0.032
   11   10   16   14   3      0     180.000 127.854   0.045
   12   11   13   10   3      0     180.000  27.509   0.066
   12   11   13   15   3      0     180.000 150.859   0.115
   12   11   13   16   3      0     180.000  87.702   0.115
   12   11   17   10   3      0     180.000 156.524   0.041
   12   11   17   15   3      0     180.000  33.174   0.072
   12   11   17   16   3      0     180.000  88.264   0.072
   17   12   18   11   2      0     180.000 176.924   0.614
   17   12   18   13   2      0     180.000   7.187   0.832
   17   12   21   11   2      0     180.000   2.861   0.911
   17   12   21   13   2      0     180.000 178.750   1.235
   18   17   19   12   3      0     180.000  86.055   0.022
   18   17   19   21   3      0     180.000  88.359   0.032
   18   17   22   12   3      0     180.000 145.184   0.032
   18   17   22   21   3      0     180.000  40.402   0.045
   18   17   23   12   3      0     180.000  29.380   0.032
   18   17   23   21   3      0     180.000 156.206   0.045
   19   18   20   17   3      0     180.000  50.654   0.066
   19   18   20   22   3      0     180.000 179.075   0.115
   19   18   20   23   3      0     180.000  64.125   0.115
   19   18   24   17   3      0     180.000 127.447   0.041
   19   18   24   22   3      0     180.000   0.974   0.072
   19   18   24   23   3      0     180.000 117.774   0.072
   24   19   25   18   2      0     180.000   8.655   0.612
   24   19   25   20   2      0     180.000 173.269   0.830
   24   19   28   18   2      0     180.000 167.566   0.908
   24   19   28   20   2      0     180.000  14.358   1.231
   25   24   26   19   3      0     180.000  98.225   0.022
   25   24   26   28   3      0     180.000  61.891   0.032
   25   24   29   19   3      0     180.000 134.711   0.032
   25   24   29   28   3      0     180.000  65.172   0.045
   25   24   30   19   3      0     180.000  17.848   0.032
   25   24   30   28   3      0     180.000 177.965   0.045
   26   25   27   24   3      0     180.000  69.764   0.066
   26   25   27   29   3      0     180.000 162.100   0.115
   26   25   27   30   3      0     180.000  49.222   0.115
   26   25   31   24   3      0     180.000 112.776   0.041
   26   25   31   29   3      0     180.000  15.360   0.072
   26   25   31   30   3      0     180.000 128.238   0.072
   31   26   32   25   2      0     180.000 178.600   0.620
   31   26   32   27   2      0     180.000   3.972   0.840
   31   26   35   25   2      0     180.000   5.706   0.920
   31   26   35   27   2      0     180.000 176.866   1.247
   32   31   33   26   3      0     180.000 107.027   0.022
   32   31   33   35   3      0     180.000  66.378   0.032
   32   31   36   26   3      0     180.000 128.197   0.032
   32   31   36   35   3      0     180.000  58.398   0.045
   32   31   37   26   3      0     180.000  12.132   0.032
   32   31   37   35   3      0     180.000 174.462   0.045
   33   32   34   31   3      0     180.000  53.067   0.066
   33   32   34   36   3      0     180.000 176.654   0.115
   33   32   34   37   3      0     180.000  64.622   0.115
   33   32   38   31   3      0     180.000 130.525   0.041
   33   32   38   36   3      0     180.000   6.938   0.072
   33   32   38   37   3      0     180.000 111.786   0.072
   38   33   39   32   2      0     180.000   3.970   0.343
   38   33   39   34   2      0     180.000 179.688   0.465
   38   33   40   32   2      0     180.000 162.687   0.489
   38   33   40   34   2      0     180.000  13.655   0.663
   39   38   41   33   2      0     180.000  74.791   1.385
   39   38   41   40   2      0     180.000 117.856   1.974
   39   38   42   33   2      0     180.000  41.693   1.385
   39   38   42   40   2      0     180.000 125.660   1.974
 out-of-plane atoms          phi0    phi      FC
    3    7    1    4          0.000   7.578   0.133
    5    6   10    4          0.000  -1.145  23.911
   10   14    5   11          0.000  14.462   0.126
   12   13   17   11          0.000  -3.732  23.916
   17   21   12   18          0.000   4.973   0.127
   19   20   24   18          0.000   1.623  23.987
   24   28   25   19          0.000 -15.487   0.137
   26   27   31   25          0.000  -2.354  24.123
   31   35   26   32          0.000   5.977   0.116
   33   34   38   32          0.000  -3.062  28.543
   38   40   39   33          0.000 -10.195  -0.052
   39   41   42   38          0.000  56.716   0.552
          #tors  :   98
          #nmol  :   7
          #optfrag :   7

 GFN-FF setup done.

           ------------------------------------------------- 
          |                   G F N - F F                   |
          |          A general generic force-field          |
          |                  Version 1.0.3                  | 
           ------------------------------------------------- 
      * Solvation model:               ALPB
        Solvent                        water
        Parameter file                 internal GFN-FF/ALPB
        Dielectric constant                8.0200E+01
        Reference state                gsolv [1 M gas/solution]
        Free energy shift                  3.6494E-04 Eh       2.2900E-01 kcal/mol
        Temperature                        2.9815E+02 K
        Density                            1.0000E+00 kg/L
        Solvent mass                       1.8000E+01 g/mol
        Interaction kernel             P16
        Born radius scaling (c1)           1.5056E+00
        Born radii integrator          GBOBC
        Born offset                        0.0000E+00 a0       0.0000E+00 AA
        H-bond correction              true
        Ion screening                  false
        Surface tension                    1.0000E-05 Eh       1.5569E+01 dyn/cm
        Grid points                               230 per atom
          Number of HB bonds (bound hydrogen)     421
          Number of HB bonds (unbound hydrogen)   52
          Number of XB bonds                      0

 E+G (total)                   0 d,  0 h,  0 min,  0.003 sec
 distance/D3 list               ...        0 min,  0.000 sec (  0.078%)
 non bonded repulsion           ...        0 min,  0.000 sec (  0.607%)
 dCN                            ...        0 min,  0.000 sec (  1.643%)
 EEQ energy and q               ...        0 min,  0.000 sec (  1.316%)
 D3                             ...        0 min,  0.000 sec (  2.398%)
 EEQ gradient                   ...        0 min,  0.000 sec (  1.333%)
 bonds                          ...        0 min,  0.000 sec (  0.258%)
 bend and torsion               ...        0 min,  0.000 sec (  1.129%)
 bonded ATM                     ...        0 min,  0.000 sec (  0.413%)
 HB/XB (incl list setup)        ...        0 min,  0.000 sec (  2.470%)
 GBSA                           ...        0 min,  0.003 sec ( 89.109%)

         :::::::::::::::::::::::::::::::::::::::::::::::::::::
         ::                     SUMMARY                     ::
         :::::::::::::::::::::::::::::::::::::::::::::::::::::
         :: total energy              -7.470203980755 Eh    ::
         :: total w/o Gsolv           -7.416064827506 Eh    ::
         :: total w/o Gsasa/hb        -7.463730016133 Eh    ::
         :: gradient norm              0.211403976688 Eh/a0 ::
         ::.................................................::
         :: bond energy               -7.515082916808 Eh    ::
         :: angle energy               0.038938642608 Eh    ::
         :: torsion energy             0.022627778278 Eh    ::
         :: repulsion energy           0.444608702846 Eh    ::
         :: electrostat energy        -0.368266027626 Eh    ::
         :: dispersion energy         -0.028209296312 Eh    ::
         :: HB energy                 -0.000634186265 Eh    ::
         :: XB energy                  0.000000000000 Eh    ::
         :: bonded atm energy         -0.010047524227 Eh    ::
         :: external energy            0.000000000000 Eh    ::
         :: -> Gsolv                  -0.054139153249 Eh    ::
         ::    -> Gborn               -0.047665188627 Eh    ::
         ::    -> Gsasa                0.011250824923 Eh    ::
         ::    -> Ghb                 -0.018089728800 Eh    ::
         ::    -> Gshift               0.000364939255 Eh    ::
         :: add. restraining           0.000000000000 Eh    ::
         :: total charge               0.000000000000 e     ::
         ::.................................................::
         :: atomisation energy         0.000000000000 Eh    ::
         :::::::::::::::::::::::::::::::::::::::::::::::::::::

      ----------------------------------------------------------- 
     |                   =====================                   |
     |                        A N C O P T                        |
     |                   =====================                   |
     |               Approximate Normal Coordinate               |
     |                Rational Function Optimizer                |
      ----------------------------------------------------------- 

          ...................................................
          :                      SETUP                      :
          :.................................................:
          :   optimization level         verytight          :
          :   max. optcycles                    10          :
          :   ANC micro-cycles                  10          :
          :   degrees of freedom               120          :
          :.................................................:
          :   RF solver                   davidson          :
          :   write xtbopt.log                true          :
          :   linear?                        false          :
          :   energy convergence         0.1000000E-06 Eh   :
          :   grad. convergence          0.2000000E-03 Eh/α :
          :   maxmium RF displ.          1.0000000          :
          :   Hlow (freq-cutoff)         0.1000000E-01      :
          :   Hmax (freq-cutoff)         5.0000000          :
          :   S6 in model hess.         20.0000000          :
          ...................................................

generating ANC from model Hessian ...
Using GFN-FF Lindh-Hessian
 Shifting diagonal of input Hessian by    0.0000000000000000     
 Lowest  eigenvalues of input Hessian
    0.000000    0.000000    0.000000    0.000000    0.000000    0.000000
    0.015805    0.018051    0.022256    0.026671    0.044007    0.051528
    0.052859    0.070650    0.074656    0.081510    0.092710    0.093613
 Highest eigenvalues
    3.620179    3.829351    3.932523    3.947080    4.135790    4.187476


........................................................................
.............................. CYCLE    1 ..............................
........................................................................
     iter. time                 ...        0 min,  0.001 sec
 * total energy  :    -7.4702040 Eh     change        0.0000000E+00 Eh
   gradient norm :     0.2114040 Eh/α   predicted     0.0000000E+00 (    NaN%)
   displ. norm   :     0.1589179 α      lambda       -0.2256408E-01
   maximum displ.:     0.0365070 α      in ANC's #2, #23, #46, ...

........................................................................
.............................. CYCLE    2 ..............................
........................................................................
     iter. time                 ...        0 min,  0.001 sec
 * total energy  :    -7.4857922 Eh     change       -0.1558819E-01 Eh
   gradient norm :     0.0845477 Eh/α   predicted    -0.1156697E-01 ( -25.80%)
   displ. norm   :     0.1327035 α      lambda       -0.6874063E-02
   maximum displ.:     0.0334409 α      in ANC's #2, #18, #17, ...

........................................................................
.............................. CYCLE    3 ..............................
........................................................................
     iter. time                 ...        0 min,  0.001 sec
 * total energy  :    -7.4895775 Eh     change       -0.3785355E-02 Eh
   gradient norm :     0.0201856 Eh/α   predicted    -0.3497817E-02 (  -7.60%)
   displ. norm   :     0.0426994 α      lambda       -0.3926837E-03
   maximum displ.:     0.0172407 α      in ANC's #1, #3, #4, ...

........................................................................
.............................. CYCLE    4 ..............................
........................................................................
     iter. time                 ...        0 min,  0.001 sec
 * total energy  :    -7.4898519 Eh     change       -0.2743286E-03 Eh
   gradient norm :     0.0096751 Eh/α   predicted    -0.1967039E-03 ( -28.30%)
   displ. norm   :     0.0443716 α      lambda       -0.1931869E-03
   maximum displ.:     0.0182539 α      in ANC's #4, #2, #1, ...

........................................................................
.............................. CYCLE    5 ..............................
........................................................................
     iter. time                 ...        0 min,  0.001 sec
 * total energy  :    -7.4899745 Eh     change       -0.1225988E-03 Eh
   gradient norm :     0.0048712 Eh/α   predicted    -0.9683076E-04 ( -21.02%)
   displ. norm   :     0.0344755 α      lambda       -0.6013578E-04
   maximum displ.:     0.0194894 α      in ANC's #2, #4, #13, ...

........................................................................
.............................. CYCLE    6 ..............................
........................................................................
     iter. time                 ...        0 min,  0.001 sec
 * total energy  :    -7.4900187 Eh     change       -0.4422637E-04 Eh
   gradient norm :     0.0048004 Eh/α   predicted    -0.3012798E-04 ( -31.88%)
   displ. norm   :     0.0454882 α      lambda       -0.5366229E-04
   maximum displ.:     0.0262433 α      in ANC's #2, #4, #5, ...

........................................................................
.............................. CYCLE    7 ..............................
........................................................................
     iter. time                 ...        0 min,  0.001 sec
 * total energy  :    -7.4900552 Eh     change       -0.3652692E-04 Eh
   gradient norm :     0.0038809 Eh/α   predicted    -0.2691119E-04 ( -26.33%)
   displ. norm   :     0.0368179 α      lambda       -0.3015794E-04
   maximum displ.:     0.0232030 α      in ANC's #4, #2, #5, ...

........................................................................
.............................. CYCLE    8 ..............................
........................................................................
     iter. time                 ...        0 min,  0.001 sec
 * total energy  :    -7.4900777 Eh     change       -0.2245749E-04 Eh
   gradient norm :     0.0030231 Eh/α   predicted    -0.1510765E-04 ( -32.73%)
   displ. norm   :     0.0464267 α      lambda       -0.3354810E-04
   maximum displ.:     0.0316544 α      in ANC's #4, #2, #5, ...

........................................................................
.............................. CYCLE    9 ..............................
........................................................................
     iter. time                 ...        0 min,  0.001 sec
 * total energy  :    -7.4901020 Eh     change       -0.2433142E-04 Eh
   gradient norm :     0.0033165 Eh/α   predicted    -0.1681135E-04 ( -30.91%)
   displ. norm   :     0.0487534 α      lambda       -0.3160459E-04
   maximum displ.:     0.0339339 α      in ANC's #4, #2, #5, ...

........................................................................
.............................. CYCLE   10 ..............................
........................................................................
     iter. time                 ...        0 min,  0.001 sec
 * total energy  :    -7.4901253 Eh     change       -0.2333005E-04 Eh
   gradient norm :     0.0039999 Eh/α   predicted    -0.1584732E-04 ( -32.07%)
   displ. norm   :     0.0499063 α      lambda       -0.3174147E-04
   maximum displ.:     0.0339002 α      in ANC's #4, #40, #5, ...

   *** FAILED TO CONVERGE GEOMETRY OPTIMIZATION IN 10 ITERATIONS ***


 ANCopt (total)                0 d,  0 h,  0 min,  0.009 sec
 optimizer setup                ...        0 min,  0.000 sec (  1.135%)
 model hessian                  ...        0 min,  0.000 sec (  3.454%)
 ANC generation                 ...        0 min,  0.001 sec (  9.741%)
 coordinate transformation      ...        0 min,  0.000 sec (  0.455%)
 single point calculation       ...        0 min,  0.007 sec ( 74.580%)
 optimization log               ...        0 min,  0.001 sec (  5.294%)
 hessian update                 ...        0 min,  0.000 sec (  0.704%)
 rational function              ...        0 min,  0.000 sec (  2.983%)

================
 final structure:
================
ATOM      1  C   GLY A  11      -2.008 -11.267  -0.716  1.00  0.00           C  
ATOM      2  O   GLY A  11      -2.858 -11.592  -1.506  1.00  0.00           O  
ATOM      3  N   GLY A  12      -0.781 -10.749  -1.038  1.00  0.00           N  
ATOM      4  CA  GLY A  12      -0.392 -10.492  -2.407  1.00  0.00           C  
ATOM      5  C   GLY A  12      -0.702  -9.082  -2.812  1.00  0.00           C  
ATOM      6  O   GLY A  12      -1.690  -8.559  -2.338  1.00  0.00           O  
ATOM      7  H   GLY A  12      -0.129 -10.400  -0.331  1.00  0.00           H  
ATOM      8  HA2 GLY A  12       0.659 -10.752  -2.567  1.00  0.00           H  
ATOM      9  HA3 GLY A  12      -0.998 -11.172  -3.023  1.00  0.00           H  
ATOM     10  N   GLY A  13       0.098  -8.391  -3.761  1.00  0.00           N  
ATOM     11  CA  GLY A  13       1.294  -8.912  -4.395  1.00  0.00           C  
ATOM     12  C   GLY A  13       1.424  -8.297  -5.765  1.00  0.00           C  
ATOM     13  O   GLY A  13       0.429  -7.956  -6.374  1.00  0.00           O  
ATOM     14  H   GLY A  13      -0.287  -7.599  -4.284  1.00  0.00           H  
ATOM     15  HA2 GLY A  13       2.157  -8.688  -3.772  1.00  0.00           H  
ATOM     16  HA3 GLY A  13       1.211  -9.999  -4.506  1.00  0.00           H  
ATOM     17  N   GLY A  14       2.703  -8.190  -6.275  1.00  0.00           N  
ATOM     18  CA  GLY A  14       2.984  -7.589  -7.567  1.00  0.00           C  
ATOM     19  C   GLY A  14       3.256  -6.107  -7.434  1.00  0.00           C  
ATOM     20  O   GLY A  14       2.412  -5.443  -6.867  1.00  0.00           O  
ATOM     21  H   GLY A  14       3.520  -8.376  -5.692  1.00  0.00           H  
ATOM     22  HA2 GLY A  14       3.801  -8.123  -8.058  1.00  0.00           H  
ATOM     23  HA3 GLY A  14       2.090  -7.727  -8.185  1.00  0.00           H  
ATOM     24  N   GLY A  15       4.393  -5.468  -7.919  1.00  0.00           N  
ATOM     25  CA  GLY A  15       5.417  -6.032  -8.775  1.00  0.00           C  
ATOM     26  C   GLY A  15       5.238  -5.631 -10.218  1.00  0.00           C  
ATOM     27  O   GLY A  15       4.330  -6.085 -10.886  1.00  0.00           O  
ATOM     28  H   GLY A  15       4.394  -4.453  -7.948  1.00  0.00           H  
ATOM     29  HA2 GLY A  15       6.403  -5.742  -8.413  1.00  0.00           H  
ATOM     30  HA3 GLY A  15       5.395  -7.127  -8.719  1.00  0.00           H  
ATOM     31  N   GLY A  16       6.195  -4.757 -10.728  1.00  0.00           N  
ATOM     32  CA  GLY A  16       6.169  -4.257 -12.091  1.00  0.00           C  
ATOM     33  C   GLY A  16       5.764  -2.812 -12.135  1.00  0.00           C  
ATOM     34  O   GLY A  16       4.755  -2.501 -11.558  1.00  0.00           O  
ATOM     35  H   GLY A  16       6.914  -4.337 -10.135  1.00  0.00           H  
ATOM     36  HA2 GLY A  16       7.142  -4.428 -12.569  1.00  0.00           H  
ATOM     37  HA3 GLY A  16       5.426  -4.852 -12.635  1.00  0.00           H  
ATOM     38  N   GLY A  17       6.537  -1.843 -12.886  1.00  0.00           N  
ATOM     39  CA  GLY A  17       7.720  -2.027 -13.579  1.00  0.00           C  
ATOM     40  H   GLY A  17       6.090  -0.927 -13.063  1.00  0.00           H  
ATOM     41  HA2 GLY A  17       8.574  -2.114 -12.903  1.00  0.00           H  
ATOM     42  HA3 GLY A  17       7.688  -2.999 -14.097  1.00  0.00           H  
END

 Bond Distances (Angstroems)
 ---------------------------
C1-O2=1.2051         C1-N3=1.3696         O2-C1=1.2051         N3-C1=1.3696         N3-C4=1.4465         N3-H7=1.0238         
C4-N3=1.4465         C4-C5=1.4990         C4-H8=1.0945         C4-H9=1.0997         C5-C4=1.4990         C5-O6=1.2148         
C5-N10=1.4206        O6-C5=1.2148         H7-N3=1.0238         H8-C4=1.0945         H9-C4=1.0997         N10-C5=1.4206        
N10-C11=1.4503       N10-H14=1.0248       C11-N10=1.4503       C11-C12=1.5068       C11-H15=1.0873       C11-H16=1.0963       
C12-C11=1.5068       C12-O13=1.2150       C12-N17=1.3818       O13-C12=1.2150       H14-N10=1.0248       H15-C11=1.0873       
H16-C11=1.0963       N17-C12=1.3818       N17-C18=1.4518       N17-H21=1.0215       C18-N17=1.4518       C18-C19=1.5132       
C18-H22=1.0921       C18-H23=1.0954       C19-C18=1.5132       C19-O20=1.2141       C19-N24=1.3915       O20-C19=1.2141       
H21-N17=1.0215       H22-C18=1.0921       H23-C18=1.0954       N24-C19=1.3915       N24-C25=1.4488       N24-H28=1.0156       
C25-N24=1.4488       C25-C26=1.5085       C25-H29=1.0901       C25-H30=1.0968       C26-C25=1.5085       C26-O27=1.2154       
C26-N31=1.3927       O27-C26=1.2154       H28-N24=1.0156       H29-C25=1.0901       H30-C25=1.0968       N31-C26=1.3927       
N31-C32=1.4526       N31-H35=1.0220       C32-N31=1.4526       C32-C33=1.5008       C32-H36=1.0972       C32-H37=1.0961       
C33-C32=1.5008       C33-O34=1.2037       C33-N38=1.4499       O34-C33=1.2037       H35-N31=1.0220       H36-C32=1.0972       
H37-C32=1.0961       N38-C33=1.4499       N38-C39=1.3826       N38-H40=1.0344       C39-N38=1.3826       C39-H41=1.0922       
C39-H42=1.1018       H40-N38=1.0344       H41-C39=1.0922       H42-C39=1.1018       
 C  H  Rav=1.0949 sigma=0.0039  Rmin=1.0873  Rmax=1.1018    12
 C  C  Rav=1.5057 sigma=0.0052  Rmin=1.4990  Rmax=1.5132     5
 N  H  Rav=1.0237 sigma=0.0056  Rmin=1.0156  Rmax=1.0344     6
 N  C  Rav=1.4199 sigma=0.0321  Rmin=1.3696  Rmax=1.4526    12
 O  C  Rav=1.2113 sigma=0.0049  Rmin=1.2037  Rmax=1.2154     6

 selected bond angles (degree)
 --------------------
N3-C1-O2=125.40                C4-N3-C1=122.08                H7-N3-C1=122.49                H7-N3-C4=114.93                
C5-C4-N3=111.55                H8-C4-N3=110.77                H8-C4-C5=112.49                H9-C4-N3=105.78                
H9-C4-C5=108.43                H9-C4-H8=107.47                O6-C5-C4=117.92                N10-C5-C4=121.44               
N10-C5-O6=120.59               C11-N10-C5=125.57              H14-N10-C5=120.39              H14-N10-C11=111.38             

 selected dihedral angles (degree)
 ---------------------------------
C4-N3-C1-O2=  2.21            H7-N3-C1-O2=173.69            C5-C4-N3-C1= 92.80            C5-C4-N3-H7=280.72            
H8-C4-N3-C1=218.94            H8-C4-N3-H7= 46.86            H9-C4-N3-C1=335.10            H9-C4-N3-H7=163.02            
O6-C5-C4-N3=326.30            O6-C5-C4-H8=201.11            O6-C5-C4-H9= 82.39            N10-C5-C4-N3=148.84           
N10-C5-C4-H8= 23.66           N10-C5-C4-H9=264.94           C11-N10-C5-C4=357.48          C11-N10-C5-O6=180.09          
H14-N10-C5-C4=157.35          H14-N10-C5-O6=339.97          
           -------------------------------------------------
          |                Final Singlepoint                |
           -------------------------------------------------
         :::::::::::::::::::::::::::::::::::::::::::::::::::::
         ::                     SUMMARY                     ::
         :::::::::::::::::::::::::::::::::::::::::::::::::::::
         :: total energy              -7.490147509216 Eh    ::
         :: total w/o Gsolv           -7.436421152855 Eh    ::
         :: total w/o Gsasa/hb        -7.483875780247 Eh    ::
         :: gradient norm              0.003815371620 Eh/a0 ::
         ::.................................................::
         :: bond energy               -7.547086837402 Eh    ::
         :: angle energy               0.035319388208 Eh    ::
         :: torsion energy             0.024990284050 Eh    ::
         :: repulsion energy           0.452075101004 Eh    ::
         :: electrostat energy        -0.369290610045 Eh    ::
         :: dispersion energy         -0.028223677438 Eh    ::
         :: HB energy                 -0.000637703759 Eh    ::
         :: XB energy                  0.000000000000 Eh    ::
         :: bonded atm energy         -0.009618226009 Eh    ::
         :: external energy            0.000000000000 Eh    ::
         :: -> Gsolv                  -0.053726356360 Eh    ::
         ::    -> Gborn               -0.047454627392 Eh    ::
         ::    -> Gsasa                0.011337725111 Eh    ::
         ::    -> Ghb                 -0.017974393334 Eh    ::
         ::    -> Gshift               0.000364939255 Eh    ::
         :: add. restraining           0.006051128536 Eh    ::
         :: total charge              -0.000000000000 e     ::
         ::.................................................::
         :: atomisation energy         0.000000000000 Eh    ::
         :::::::::::::::::::::::::::::::::::::::::::::::::::::

           -------------------------------------------------
          |                Property Printout                |
           -------------------------------------------------
           -------------------------------------------------
          |                Geometry Summary                 |
           -------------------------------------------------

      molecular mass/u    :      342.3084131
   center of mass at/Å    :        2.6034479      -6.8291605      -7.0899405
  moments of inertia/u·Å² :        0.4196606E+03   0.1106018E+05   0.1118966E+05
rotational constants/cm⁻¹ :        0.4016969E-01   0.1524174E-02   0.1506536E-02

 * 33 selected distances

     #   Z          #   Z                                           value/Å
     3   7  N       4   6  C                                      1.4465150
     5   6  C       6   8  O                                      1.2148091
     3   7  N       7   1  H                                      1.0238256
     4   6  C       8   1  H                                      1.0945285
     4   6  C       9   1  H                                      1.0996699
     5   6  C      10   7  N                                      1.4206138
    10   7  N      11   6  C                                      1.4502693
    12   6  C      13   8  O                                      1.2149768
    10   7  N      14   1  H                                      1.0247870
    11   6  C      15   1  H                                      1.0873104
    11   6  C      16   1  H                                      1.0962541
    12   6  C      17   7  N                                      1.3817928
    17   7  N      18   6  C                                      1.4517554
    19   6  C      20   8  O                                      1.2140634
    17   7  N      21   1  H                                      1.0214588
    18   6  C      22   1  H                                      1.0920723
    18   6  C      23   1  H                                      1.0953535
    19   6  C      24   7  N                                      1.3914979
    24   7  N      25   6  C                                      1.4487510
    26   6  C      27   8  O                                      1.2154032
    24   7  N      28   1  H                                      1.0155659 (min)
    25   6  C      29   1  H                                      1.0900526
    25   6  C      30   1  H                                      1.0967822
    26   6  C      31   7  N                                      1.3926709
    31   7  N      32   6  C                                      1.4526485 (max)
    33   6  C      34   8  O                                      1.2037441
    31   7  N      35   1  H                                      1.0219975
    32   6  C      36   1  H                                      1.0971553
    32   6  C      37   1  H                                      1.0960793
    38   7  N      39   6  C                                      1.3825767
    38   7  N      40   1  H                                      1.0344470
    39   6  C      41   1  H                                      1.0922094
    39   6  C      42   1  H                                      1.1017505

 * 4 distinct bonds (by element types)

   Z      Z             #   av. dist./Å        max./Å        min./Å
   1 H    6 C          12     1.0949348     1.1017505     1.0873104
   1 H    7 N           6     1.0236803     1.0344470     1.0155659
   6 C    7 N          10     1.4219091     1.4526485     1.3817928
   6 C    8 O           5     1.2125993     1.2154032     1.2037441


optimized geometry written to: xtbopt.pdb


           -------------------------------------------------
          | TOTAL ENERGY               -7.490147509216 Eh   |
          | GRADIENT NORM               0.003815371620 Eh/α |
           -------------------------------------------------
########################################################################
[WARNING] Runtime exception occurred
-1- gfnff_setup: Could not read topology file.
########################################################################

------------------------------------------------------------------------
 unit  open   action     filename
   10 false : read       xtb_settings.inp
   10 false : read       substructure_1.pdb
   10 false : read       xtb_settings.inp
   10 false : written    gfnff_topo
   10 false : written    gfnff_adjacency
   10 false : written    gfnff_charges
   10 false : deleted    .xtboptok
   10 false : replaced   xtbopt.log
   11 false : created    .xtboptok
   11 false : replaced   gfnff_charges
   10 false : replaced   xtbopt.pdb

------------------------------------------------------------------------
 * finished run on 2025/05/27 at 09:37:30.419     
------------------------------------------------------------------------
 total:
 * wall-time:     0 d,  0 h,  0 min,  0.018 sec
 *  cpu-time:     0 d,  0 h,  0 min,  0.018 sec
 * ratio c/w:     0.999 speedup
 SCF:
 * wall-time:     0 d,  0 h,  0 min,  0.003 sec
 *  cpu-time:     0 d,  0 h,  0 min,  0.003 sec
 * ratio c/w:     1.000 speedup
 ANC optimizer:
 * wall-time:     0 d,  0 h,  0 min,  0.011 sec
 *  cpu-time:     0 d,  0 h,  0 min,  0.011 sec
 * ratio c/w:     1.000 speedup

