      -----------------------------------------------------------      
     |                   =====================                   |     
     |                           x T B                           |     
     |                   =====================                   |     
     |                         S. Grimme                         |     
     |          Mulliken Center for Theoretical Chemistry        |     
     |                    University of Bonn                     |     
      -----------------------------------------------------------      

   * xtb version 6.6.1 (8d0f1dd) compiled by 'conda@1efc2f54142f' on 2023-08-01

   xtb is free software: you can redistribute it and/or modify it under
   the terms of the GNU Lesser General Public License as published by
   the Free Software Foundation, either version 3 of the License, or
   (at your option) any later version.
   
   xtb is distributed in the hope that it will be useful,
   but WITHOUT ANY WARRANTY; without even the implied warranty of
   MERCHANTABILITY or FITNESS FOR A PARTICULAR PURPOSE.  See the
   GNU Lesser General Public License for more details.
   
   Cite this work as:
   * C. Bannwarth, E. Caldeweyher, S. Ehlert, A. Hansen, P. Pracht,
     J. Seibert, S. Spicher, S. Grimme, WIREs Comput. Mol. Sci., 2020, 11,
     e01493. DOI: 10.1002/wcms.1493
   
   for GFN2-xTB:
   * C. Bannwarth, S. Ehlert and S. Grimme., J. Chem. Theory Comput., 2019,
     15, 1652-1671. DOI: 10.1021/acs.jctc.8b01176
   for GFN1-xTB:
   * S. Grimme, C. Bannwarth, P. Shushkov, J. Chem. Theory Comput., 2017,
     13, 1989-2009. DOI: 10.1021/acs.jctc.7b00118
   for GFN0-xTB:
   * P. Pracht, E. Caldeweyher, S. Ehlert, S. Grimme, ChemRxiv, 2019, preprint.
     DOI: 10.26434/chemrxiv.8326202.v1
   for GFN-FF:
   * S. Spicher and S. Grimme, Angew. Chem. Int. Ed., 2020, 59, 15665-15673.
     DOI: 10.1002/anie.202004239
   
   for ALPB and GBSA implicit solvation:
   * S. Ehlert, M. Stahn, S. Spicher, S. Grimme, J. Chem. Theory Comput.,
     2021, 17, 4250-4261. DOI: 10.1021/acs.jctc.1c00471
   
   for DFT-D4:
   * E. Caldeweyher, C. Bannwarth and S. Grimme, J. Chem. Phys., 2017,
     147, 034112. DOI: 10.1063/1.4993215
   * E. Caldeweyher, S. Ehlert, A. Hansen, H. Neugebauer, S. Spicher,
     C. Bannwarth and S. Grimme, J. Chem. Phys., 2019, 150, 154122.
     DOI: 10.1063/1.5090222
   * E. Caldeweyher, J.-M. Mewes, S. Ehlert and S. Grimme, Phys. Chem. Chem. Phys.
     2020, 22, 8499-8512. DOI: 10.1039/D0CP00502A
   
   for sTDA-xTB:
   * S. Grimme and C. Bannwarth, J. Chem. Phys., 2016, 145, 054103.
     DOI: 10.1063/1.4959605
   
   in the mass-spec context:
   * V. Asgeirsson, C. Bauer and S. Grimme, Chem. Sci., 2017, 8, 4879.
     DOI: 10.1039/c7sc00601b
   * J. Koopman and S. Grimme, ACS Omega 2019, 4, 12, 15120-15133.
     DOI: 10.1021/acsomega.9b02011
   
   for metadynamics refer to:
   * S. Grimme, J. Chem. Theory Comput., 2019, 155, 2847-2862
     DOI: 10.1021/acs.jctc.9b00143
   
   for SPH calculations refer to:
   * S. Spicher and S. Grimme, J. Chem. Theory Comput., 2021, 17, 1701-1714
     DOI: 10.1021/acs.jctc.0c01306
   
   with help from (in alphabetical order)
   P. Atkinson, C. Bannwarth, F. Bohle, G. Brandenburg, E. Caldeweyher
   M. Checinski, S. Dohm, S. Ehlert, S. Ehrlich, I. Gerasimov, C. Hölzer
   A. Katbashev, J. Koopman, C. Lavigne, S. Lehtola, F. März, M. Müller,
   F. Musil, H. Neugebauer, J. Pisarek, C. Plett, P. Pracht, F. Pultar,
   J. Seibert, P. Shushkov, S. Spicher, M. Stahn, M. Steiner, T. Strunk,
   J. Stückrath, T. Rose, and J. Unsleber
   
 * started run on 2025/05/27 at 09:37:47.391     

           -------------------------------------------------
          |                Calculation Setup                |
           -------------------------------------------------

          program call               : xtb substructure_36.pdb --gfnff --input xtb_settings.inp --opt vtight --alpb water --verbose
          coordinate file            : substructure_36.pdb
          xtbhome directory          : /home/dargen3
          path for xtb               : /home/dargen3
          xcontrol input file        : xtb_settings.inp
          omp threads                :                     1

$$$$$$$$$$$$$$$$$$$$$$$$$$$$$$$$$$$$$$$$$$$$$$$$$$$$$$$$$$$$$$$$$$$$$$$$
 CONSTRAINTS & SCANS: DEBUG SECTION
$$$$$$$$$$$$$$$$$$$$$$$$$$$$$$$$$$$$$$$$$$$$$$$$$$$$$$$$$$$$$$$$$$$$$$$$
   ID    Z sym.   atoms
    1    6  C     1, 4, 5, 11, 12, 18, 19, 25, 26, 32, 33, 39
    2    8  O     2, 6, 13, 20, 27, 34
    3    7  N     3, 10, 17, 24, 31, 38
    4    1  H     7-9, 14-16, 21-23, 28-30, 35-37, 40-42
> constrain
-> atoms: 1, 2, 3, 4, 5, 6, 7, 8, 9, 10, 11, 12, 13, 14, 15, 16, 18, 24, 25, 26, 27, 28, 29, 30, 31, 32, 33, 34, 35, 36, 37, 38, 39, 40, 41, 42
--> 1: 1
--> 2: 2
--> 3: 3
--> 4: 4
--> 5: 5
--> 6: 6
--> 7: 7
--> 8: 8
--> 9: 9
--> 10: 10
--> 11: 11
--> 12: 12
--> 13: 13
--> 14: 14
--> 15: 15
--> 16: 16
--> 17: 18
--> 18: 24
--> 19: 25
--> 20: 26
--> 21: 27
--> 22: 28
--> 23: 29
--> 24: 30
--> 25: 31
--> 26: 32
--> 27: 33
--> 28: 34
--> 29: 35
--> 30: 36
--> 31: 37
--> 32: 38
--> 33: 39
--> 34: 40
--> 35: 41
--> 36: 42
-> force constant=1.0
$$$$$$$$$$$$$$$$$$$$$$$$$$$$$$$$$$$$$$$$$$$$$$$$$$$$$$$$$$$$$$$$$$$$$$$$
           -------------------------------------------------
          |                   Constraints                   |
           -------------------------------------------------

 * 36 constrained atom positions
   positions refering to input geometry

     #   Z                                   position/Å      displ./Å
     1   6 C     -1.7740002   -11.4240011    -0.6230001     0.0000000
     2   8 O     -2.2680002   -12.2200011    -1.3930001     0.0000000
     3   7 N     -0.7570001   -10.5730010    -0.9960001     0.0000000
     4   6 C     -0.3730000   -10.4770010    -2.3880002     0.0000000
     5   6 C     -0.7690001    -9.1290008    -2.9480003     0.0000000
     6   8 O     -1.8280002    -8.6530008    -2.5920002     0.0000000
     7   1 H     -0.5030000    -9.7690009    -0.4210000     0.0000000
     8   1 H      0.7020001   -10.6400010    -2.4640002     0.0000000
     9   1 H     -0.8880001   -11.2630010    -2.9330003     0.0000000
    10   7 N      0.0260000    -8.4600008    -3.8620004     0.0000000
    11   6 C      1.3240001    -8.8870008    -4.3620004     0.0000000
    12   6 C      1.5200001    -8.4760008    -5.8030005     0.0000000
    13   8 O      0.5740001    -8.4740008    -6.5590006     0.0000000
    14   1 H     -0.3300000    -7.6150007    -4.3010004     0.0000000
    15   1 H      2.1100002    -8.5050008    -3.7330003     0.0000000
    16   1 H      1.3700001    -9.9930009    -4.3350004     0.0000000
    18   6 C      3.0050003    -7.6070007    -7.5660007     0.0000000
    24   7 N      4.2610004    -5.4290005    -8.0620007     0.0000000
    25   6 C      5.4280005    -5.9890006    -8.7440008     0.0000000
    26   6 C      5.4110005    -5.6750005   -10.2200009     0.0000000
    27   8 O      4.6420004    -6.2730006   -10.9420010     0.0000000
    28   1 H      4.2190004    -4.4140004    -8.1010008     0.0000000
    29   1 H      6.3370006    -5.6090005    -8.2840008     0.0000000
    30   1 H      5.4510005    -7.0780007    -8.6190008     0.0000000
    31   7 N      6.2700006    -4.7090004   -10.7050010     0.0000000
    32   6 C      6.1780006    -4.2520004   -12.0880011     0.0000000
    33   6 C      5.7950005    -2.7910003   -12.1330011     0.0000000
    34   8 O      4.8150004    -2.4500002   -11.5030011     0.0000000
    35   1 H      6.7720006    -4.0840004   -10.0740009     0.0000000
    36   1 H      7.1320007    -4.4320004   -12.5870012     0.0000000
    37   1 H      5.4130005    -4.8450004   -12.5800012     0.0000000
    38   7 N      6.5020006    -1.8460002   -12.8610012     0.0000000
    39   6 C      7.7600007    -2.0220002   -13.5740013     0.0000000
    40   1 H      6.1860006    -0.8730001   -12.8490012     0.0000000
    41   1 H      8.5340008    -2.3250002   -12.8600012     0.0000000
    42   1 H      7.6390007    -2.8400003   -14.3030013     0.0000000

     applying 630 atom pairwise harmonic potentials
       applied force constant per pair:     0.0285714
     effective force constant per atom:     1.0000000
         constraining energy/grad norm:     0.0000000     0.0000000

     total constraint energy/grad norm:     0.0000000     0.0000000

          charge from pdb residues: 0

          entering GFN-FF setup routine... 42

          ==================== Thresholds ====================
          CN  :   150.00000
          rep :   500.00000
          disp:  2500.00000
          HB1 :   250.00000
          HB2 :   450.00000

          Pauling EN used:
          Z : 1  EN :  2.20
          Z : 6  EN :  2.55
          Z : 7  EN :  3.04
          Z : 8  EN :  3.44
          electric field strengths (au): 0.000

           ------------------------------------------------- 
          |           Force Field Initialization            |
           ------------------------------------------------- 

          distances ...
          ----------------------------------------
          generating topology and atomic info file ...
          pair mat ...
          computing topology distances matrix with Floyd-Warshall algo ...
          making topology EEQ charges ...
          #fragments for EEQ constrain from pdb file: 7
          ----------------------------------------
          generating topology and atomic info file ...
          pair mat ...
          computing topology distances matrix with Floyd-Warshall algo ...
          making topology EEQ charges ...
          #fragments for EEQ constrain from pdb file: 7
          rings ...
          # BATM   334
          # H in HB   18
          doing iterative Hueckel for 6 subsystem(s) ...
          iterative Hueckel run to get P ...
Hueckel system :  1 charge :   0 ndim/Nel :    3    3   eps(HOMO/LUMO)   -0.953545   -0.953545
Hueckel system :  2 charge :   0 ndim/Nel :    3    4   eps(HOMO/LUMO)   -0.911563   -0.911563
Hueckel system :  3 charge :   0 ndim/Nel :    3    4   eps(HOMO/LUMO)   -0.911539   -0.911539
Hueckel system :  4 charge :   0 ndim/Nel :    3    4   eps(HOMO/LUMO)   -0.912604   -0.912604
Hueckel system :  5 charge :   0 ndim/Nel :    3    4   eps(HOMO/LUMO)   -0.910014   -0.910014
Hueckel system :  6 charge :   0 ndim/Nel :    4    5   eps(HOMO/LUMO)    1.305314    1.305314
WARNING: probably wrong pi occupation for system 6. Second attempt with Nel=Nel-1!
 at,nb,topo%hyb,Npiel:          33  C             3           2           1
 at,nb,topo%hyb,Npiel:          34  O             1           2           1
 at,nb,topo%hyb,Npiel:          38  N             3           3           2
 at,nb,topo%hyb,Npiel:          39  C             3           2           1

          eigenvalues
 #    :           1          2          3          4
 occ. :        2.000      1.987      0.013      0.000
 eps  :        -4.349     -2.183      1.305      3.389
Hueckel system :  6 charge :   0 ndim/Nel :    4    4   eps(HOMO/LUMO)   -2.182830    1.305314

  atom   neighbors  erfCN metchar sp-hybrid imet pi  qest     coordinates
    1   C      2    1.93   0.00        -2    0    1   0.120   -3.352374  -21.588231   -1.177299
    2   O      1    0.98   0.00         2    0    1  -0.120   -4.285899  -23.092453   -2.632388
    3   N      3    2.79   0.00        -3    0    1  -0.166   -1.430523  -19.980074   -1.882167
    4   C      4    3.49   0.00         3    0    0   0.005   -0.704868  -19.798661   -4.512666
    5   C      3    2.79   0.00         2    0    1   0.174   -1.453199  -17.251310   -5.570913
    6   O      1    0.98   0.00         2    0    1  -0.352   -3.454419  -16.351800   -4.898170
    7   H      1    0.98   0.00         0    0    0   0.153   -0.950532  -18.460735   -0.795575
    8   H      1    0.97   0.00         0    0    0   0.093    1.326588  -20.106686   -4.656285
    9   H      1    0.97   0.00         0    0    0   0.093   -1.678077  -21.283985   -5.542567
   10   N      3    2.79   0.00        -3    0    1  -0.168    0.049133  -15.987083   -7.298122
   11   C      4    3.49   0.00         3    0    0   0.006    2.501997  -16.793996   -8.242985
   12   C      3    2.80   0.00         2    0    1   0.174    2.872384  -16.017319  -10.966081
   13   O      1    0.98   0.00         2    0    1  -0.352    1.084703  -16.013539  -12.394714
   14   H      1    0.98   0.00         0    0    0   0.155   -0.623610  -14.390264   -8.127712
   15   H      1    0.97   0.00         0    0    0   0.092    3.987322  -16.072121   -7.054348
   16   H      1    0.97   0.01         0    0    0   0.092    2.588925  -18.884033   -8.191963
   17   N      3    2.79   0.00        -3    0    1  -0.168    5.262887  -15.348356  -11.767325
   18   C      4    3.49   0.00         3    0    0   0.006    5.678627  -14.375147  -14.297668
   19   C      3    2.79   0.00         2    0    1   0.175    5.980983  -11.531109  -14.254204
   20   O      1    0.98   0.00         2    0    1  -0.353    4.284009  -10.317905  -13.299892
   21   H      1    0.98   0.00         0    0    0   0.154    6.689630  -15.023323  -10.508767
   22   H      1    0.97   0.00         0    0    0   0.093    7.279225  -15.321899  -15.165052
   23   H      1    0.97   0.00         0    0    0   0.093    3.996771  -14.834350  -15.410717
   24   N      3    2.79   0.00        -3    0    1  -0.165    8.052123  -10.259323  -15.234972
   25   C      4    3.49   0.00         3    0    0   0.004   10.257433  -11.317570  -16.523765
   26   C      3    2.79   0.00         2    0    1   0.178   10.225308  -10.724196  -19.313001
   27   O      1    0.98   0.00         2    0    1  -0.354    8.772109  -11.854252  -20.677383
   28   H      1    0.98   0.00         0    0    0   0.150    7.972755   -8.341251  -15.308671
   29   H      1    0.97   0.00         0    0    0   0.093   11.975194  -10.599474  -15.654491
   30   H      1    0.97   0.00         0    0    0   0.093   10.300897  -13.375482  -16.287549
   31   N      3    2.79   0.00        -3    0    1  -0.170   11.848583   -8.898720  -20.229518
   32   C      4    3.49   0.00         3    0    0   0.006   11.674728   -8.035115  -22.843009
   33   C      3    2.79   0.00         2    0    1   0.195   10.950963   -5.274226  -22.928047
   34   O      1    0.98   0.00         2    0    1  -0.357    9.099031   -4.629829  -21.737520
   35   H      1    0.98   0.00         0    0    0   0.147   12.797225   -7.717641  -19.037101
   36   H      1    0.97   0.00         0    0    0   0.090   13.477527   -8.375266  -23.785983
   37   H      1    0.97   0.00         0    0    0   0.090   10.229088   -9.155723  -23.772755
   38   N      3    2.79   0.00         3    0    1  -0.226   12.286999   -3.488434  -24.303768
   39   C      3    2.78   0.00         2    0    1  -0.008   14.664275   -3.821026  -25.651142
   40   H      1    0.98   0.00         0    0    0   0.123   11.689846   -1.649731  -24.281091
   41   H      1    0.97   0.00         0    0    0   0.055   16.126923   -4.393613  -24.301878
   42   H      1    0.97   0.01         0    0    0   0.055   14.435618   -5.366822  -27.028753

molecular fragment  # atoms  topo charge
       1             2            -0.000
       2             7            -0.000
       3             7            -0.000
       4             7            -0.000
       5             7             0.000
       6             7            -0.000
       7             5             0.000


          #atoms :   42
          #bonds :   41

 bond atoms        type  in ring    R      R0    piBO    fqq  kbond(tot)  alp
 O  C     2    1      2    0     1.213   0.996   0.799   1.047  -0.252   0.584
 N  C     3    1      2    0     1.378   1.215   0.504   1.047  -0.235   0.524
 C  N     4    3      1    0     1.447   1.326 -99.000   1.033  -0.151   0.496
 C  C     5    4      1    0     1.512   1.332 -99.000   1.013  -0.162   0.475
 O  C     6    5      2    0     1.214   1.031   0.856   1.047  -0.262   0.584
 H  N     7    3      1    0     1.021   0.890 -99.000   1.047  -0.176   0.551
 H  C     8    4      1    0     1.090   0.977 -99.000   1.018  -0.164   0.482
 H  C     9    4      1    0     1.086   0.977 -99.000   1.018  -0.164   0.482
 N  C    10    5      2    0     1.384   1.263   0.503   1.047  -0.234   0.524
 C  N    11   10      1    0     1.455   1.326 -99.000   1.035  -0.151   0.496
 C  C    12   11      1    0     1.511   1.332 -99.000   1.011  -0.162   0.475
 O  C    13   12      2    0     1.211   1.031   0.856   1.047  -0.262   0.584
 H  N    14   10      1    0     1.017   0.890 -99.000   1.047  -0.176   0.551
 H  C    15   11      1    0     1.077   0.976 -99.000   1.017  -0.164   0.482
 H  C    16   11      1    0     1.107   0.976 -99.000   1.017  -0.164   0.482
 N  C    17   12      2    0     1.380   1.263   0.503   1.047  -0.234   0.524
 C  N    18   17      1    0     1.451   1.326 -99.000   1.034  -0.151   0.496
 C  C    19   18      1    0     1.514   1.332 -99.000   1.012  -0.162   0.475
 O  C    20   19      2    0     1.214   1.031   0.856   1.047  -0.262   0.584
 H  N    21   17      1    0     1.021   0.890 -99.000   1.047  -0.176   0.551
 H  C    22   18      1    0     1.086   0.977 -99.000   1.017  -0.164   0.482
 H  C    23   18      1    0     1.095   0.976 -99.000   1.017  -0.164   0.482
 N  C    24   19      2    0     1.387   1.263   0.503   1.047  -0.234   0.524
 C  N    25   24      1    0     1.463   1.325 -99.000   1.031  -0.151   0.496
 C  C    26   25      1    0     1.509   1.332 -99.000   1.015  -0.163   0.475
 O  C    27   26      2    0     1.213   1.031   0.856   1.047  -0.262   0.584
 H  N    28   24      1    0     1.017   0.890 -99.000   1.047  -0.176   0.551
 H  C    29   25      1    0     1.087   0.976 -99.000   1.019  -0.164   0.482
 H  C    30   25      1    0     1.096   0.976 -99.000   1.019  -0.164   0.482
 N  C    31   26      2    0     1.381   1.263   0.504   1.047  -0.234   0.524
 C  N    32   31      1    0     1.459   1.326 -99.000   1.034  -0.151   0.496
 C  C    33   32      1    0     1.511   1.332 -99.000   1.011  -0.162   0.475
 O  C    34   33      2    0     1.214   1.018   0.930   1.047  -0.274   0.584
 H  N    35   31      1    0     1.020   0.890 -99.000   1.047  -0.176   0.551
 H  C    36   32      1    0     1.092   0.976 -99.000   1.018  -0.164   0.482
 H  C    37   32      1    0     1.086   0.977 -99.000   1.018  -0.164   0.482
 N  C    38   33      2    0     1.387   1.291   0.346   1.047  -0.203   0.524
 C  N    39   38      2    0     1.457   1.189   0.906   1.006  -0.302   0.524
 H  N    40   38      1    0     1.023   0.890 -99.000   1.047  -0.176   0.551
 H  C    41   39      1    0     1.096   0.949 -99.000   1.029  -0.179   0.490
 H  C    42   39      1    0     1.102   0.949 -99.000   1.029  -0.179   0.490
          #angl  :   67

 angle atoms        phi0    phi      FC  pi rings
    1    3    2   145.000 122.298   0.082 F   0
    3    4    1   115.000 119.823   0.411 F   0
    3    7    1   115.000 121.189   0.335 F   0
    3    7    4   104.000 115.064   0.182 F   0
    4    5    3   109.500 110.230   0.307 F   0
    4    8    3   109.500 108.594   0.253 F   0
    4    8    5   109.500 111.451   0.251 F   0
    4    9    3   109.500 107.986   0.253 F   0
    4    9    5   109.500 109.572   0.251 F   0
    4    9    8   108.600 108.929   0.209 F   0
    5    6    4   120.000 117.977   0.178 F   0
    5   10    4   120.000 121.669   0.243 F   0
    5   10    6   120.000 120.338   0.177 F   0
   10   11    5   115.000 126.697   0.409 F   0
   10   14    5   115.000 119.070   0.333 F   0
   10   14   11   104.000 114.075   0.182 F   0
   11   12   10   109.500 111.318   0.307 F   0
   11   15   10   109.500 110.264   0.253 F   0
   11   15   12   109.500 111.461   0.252 F   0
   11   16   10   109.500 108.772   0.253 F   0
   11   16   12   109.500 106.829   0.252 F   0
   11   16   15   108.600 108.047   0.209 F   0
   12   13   11   120.000 119.631   0.178 F   0
   12   17   11   120.000 118.784   0.243 F   0
   12   17   13   120.000 121.583   0.177 F   0
   17   18   12   115.000 120.884   0.409 F   0
   17   21   12   115.000 121.355   0.333 F   0
   17   21   18   104.000 115.453   0.182 F   0
   18   19   17   109.500 110.782   0.307 F   0
   18   22   17   109.500 110.151   0.253 F   0
   18   22   19   109.500 112.502   0.251 F   0
   18   23   17   109.500 107.123   0.253 F   0
   18   23   19   109.500 108.353   0.251 F   0
   18   23   22   108.600 107.719   0.209 F   0
   19   20   18   120.000 116.999   0.178 F   0
   19   24   18   120.000 124.078   0.243 F   0
   19   24   20   120.000 118.923   0.176 F   0
   24   25   19   115.000 128.245   0.409 F   0
   24   28   19   115.000 117.787   0.334 F   0
   24   28   25   104.000 113.404   0.182 F   0
   25   26   24   109.500 111.548   0.307 F   0
   25   29   24   109.500 109.624   0.253 F   0
   25   29   26   109.500 110.516   0.251 F   0
   25   30   24   109.500 110.106   0.253 F   0
   25   30   26   109.500 108.567   0.251 F   0
   25   30   29   108.600 106.341   0.209 F   0
   26   27   25   120.000 119.137   0.178 F   0
   26   31   25   120.000 118.825   0.242 F   0
   26   31   27   120.000 122.037   0.176 F   0
   31   32   26   115.000 120.847   0.409 F   0
   31   35   26   115.000 121.165   0.333 F   0
   31   35   32   104.000 115.169   0.182 F   0
   32   33   31   109.500 110.302   0.307 F   0
   32   36   31   109.500 109.054   0.253 F   0
   32   36   33   109.500 111.552   0.251 F   0
   32   37   31   109.500 107.625   0.253 F   0
   32   37   33   109.500 109.632   0.251 F   0
   32   37   36   108.600 108.576   0.209 F   0
   33   34   32   120.000 117.437   0.177 F   0
   33   38   32   120.000 123.047   0.241 F   0
   33   38   34   120.000 119.514   0.174 F   0
   38   39   33   113.000 127.948   0.042 F   0
   38   40   33   113.000 118.979   0.211 F   0
   38   40   39   113.000 112.792   0.105 F   0
   39   41   38   120.000 108.935   0.204 F   0
   39   42   38   120.000 108.575   0.204 F   0
   39   42   41   120.000 107.653   0.167 F   0
 torsion atoms        nrot   rings    phi0    phi      FC
    3    1    4    2   2      0     180.000   8.724   0.765
    3    1    7    2   2      0     180.000 165.333   1.135
    4    3    5    1   3      0     180.000 110.537   0.024
    4    3    5    7   3      0     180.000  47.442   0.032
    4    3    8    1   3      0     180.000 127.106   0.034
    4    3    8    7   3      0     180.000  74.915   0.045
    4    3    9    1   3      0     180.000   9.132   0.034
    4    3    9    7   3      0     180.000 167.112   0.045
    5    4    6    3   3      0     180.000  38.382   0.066
    5    4    6    8   3      0     180.000 159.040   0.115
    5    4    6    9   3      0     180.000  80.322   0.115
    5    4   10    3   3      0     180.000 143.057   0.041
    5    4   10    8   3      0     180.000  22.399   0.072
    5    4   10    9   3      0     180.000  98.239   0.072
   10    5   11    4   2      0     180.000   2.758   0.614
   10    5   11    6   2      0     180.000 178.715   0.833
   10    5   14    4   2      0     180.000 172.377   0.911
   10    5   14    6   2      0     180.000   6.150   1.235
   11   10   12    5   3      0     180.000 145.902   0.022
   11   10   12   14   3      0     180.000  29.441   0.032
   11   10   15    5   3      0     180.000  89.853   0.032
   11   10   15   14   3      0     180.000  94.803   0.045
   11   10   16    5   3      0     180.000  28.458   0.032
   11   10   16   14   3      0     180.000 146.885   0.045
   12   11   13   10   3      0     180.000  35.090   0.066
   12   11   13   15   3      0     180.000 158.656   0.115
   12   11   13   16   3      0     180.000  83.526   0.115
   12   11   17   10   3      0     180.000 145.488   0.041
   12   11   17   15   3      0     180.000  21.922   0.072
   12   11   17   16   3      0     180.000  95.896   0.072
   17   12   18   11   2      0     180.000 174.486   0.614
   17   12   18   13   2      0     180.000   6.104   0.832
   17   12   21   11   2      0     180.000  12.522   0.911
   17   12   21   13   2      0     180.000 168.068   1.235
   18   17   19   12   3      0     180.000 101.873   0.022
   18   17   19   21   3      0     180.000  61.101   0.032
   18   17   22   12   3      0     180.000 133.007   0.032
   18   17   22   21   3      0     180.000  64.020   0.045
   18   17   23   12   3      0     180.000  16.117   0.032
   18   17   23   21   3      0     180.000 179.090   0.045
   19   18   20   17   3      0     180.000  55.709   0.066
   19   18   20   22   3      0     180.000 179.491   0.115
   19   18   20   23   3      0     180.000  61.528   0.115
   19   18   24   17   3      0     180.000 124.480   0.041
   19   18   24   22   3      0     180.000   0.698   0.072
   19   18   24   23   3      0     180.000 118.283   0.072
   24   19   25   18   2      0     180.000   1.758   0.612
   24   19   25   20   2      0     180.000 178.050   0.830
   24   19   28   18   2      0     180.000 172.525   0.908
   24   19   28   20   2      0     180.000   7.283   1.231
   25   24   26   19   3      0     180.000 108.411   0.022
   25   24   26   28   3      0     180.000  62.691   0.032
   25   24   29   19   3      0     180.000 128.848   0.032
   25   24   29   28   3      0     180.000  60.050   0.045
   25   24   30   19   3      0     180.000  12.194   0.032
   25   24   30   28   3      0     180.000 176.704   0.045
   26   25   27   24   3      0     180.000  74.408   0.066
   26   25   27   29   3      0     180.000 163.363   0.115
   26   25   27   30   3      0     180.000  47.094   0.115
   26   25   31   24   3      0     180.000 105.307   0.041
   26   25   31   29   3      0     180.000  16.922   0.072
   26   25   31   30   3      0     180.000 133.191   0.072
   31   26   32   25   2      0     180.000 172.347   0.620
   31   26   32   27   2      0     180.000   7.359   0.840
   31   26   35   25   2      0     180.000  12.276   0.920
   31   26   35   27   2      0     180.000 167.430   1.247
   32   31   33   26   3      0     180.000 115.871   0.022
   32   31   33   35   3      0     180.000  45.329   0.032
   32   31   36   26   3      0     180.000 121.298   0.032
   32   31   36   35   3      0     180.000  77.502   0.045
   32   31   37   26   3      0     180.000   3.694   0.032
   32   31   37   35   3      0     180.000 164.894   0.045
   33   32   34   31   3      0     180.000  51.969   0.066
   33   32   34   36   3      0     180.000 173.326   0.115
   33   32   34   37   3      0     180.000  66.373   0.115
   33   32   38   31   3      0     180.000 128.514   0.041
   33   32   38   36   3      0     180.000   7.157   0.072
   33   32   38   37   3      0     180.000 113.144   0.072
   38   33   39   32   2      0     180.000   6.698   0.343
   38   33   39   34   2      0     180.000 173.795   0.465
   38   33   40   32   2      0     180.000 179.866   0.489
   38   33   40   34   2      0     180.000   0.359   0.663
   39   38   41   33   2      0     180.000  60.267   1.385
   39   38   41   40   2      0     180.000 113.506   1.974
   39   38   42   33   2      0     180.000  56.702   1.385
   39   38   42   40   2      0     180.000 129.525   1.974
 out-of-plane atoms          phi0    phi      FC
    3    7    1    4          0.000  20.147   0.133
    5    6   10    4          0.000  -1.254  23.911
   10   14    5   11          0.000   3.899   0.126
   12   13   17   11          0.000  -0.517  23.916
   17   21   12   18          0.000  15.409   0.127
   19   20   24   18          0.000  -0.160  23.987
   24   28   19   25          0.000   7.239   0.137
   26   27   31   25          0.000   0.257  24.123
   31   35   26   32          0.000  17.016   0.116
   33   34   38   32          0.000  -0.413  28.543
   38   40   33   39          0.000  -5.172  -0.052
   39   41   42   38          0.000  56.992   0.552
          #tors  :   98
          #nmol  :   7
          #optfrag :   7

 GFN-FF setup done.

           ------------------------------------------------- 
          |                   G F N - F F                   |
          |          A general generic force-field          |
          |                  Version 1.0.3                  | 
           ------------------------------------------------- 
      * Solvation model:               ALPB
        Solvent                        water
        Parameter file                 internal GFN-FF/ALPB
        Dielectric constant                8.0200E+01
        Reference state                gsolv [1 M gas/solution]
        Free energy shift                  3.6494E-04 Eh       2.2900E-01 kcal/mol
        Temperature                        2.9815E+02 K
        Density                            1.0000E+00 kg/L
        Solvent mass                       1.8000E+01 g/mol
        Interaction kernel             P16
        Born radius scaling (c1)           1.5056E+00
        Born radii integrator          GBOBC
        Born offset                        0.0000E+00 a0       0.0000E+00 AA
        H-bond correction              true
        Ion screening                  false
        Surface tension                    1.0000E-05 Eh       1.5569E+01 dyn/cm
        Grid points                               230 per atom
          Number of HB bonds (bound hydrogen)     423
          Number of HB bonds (unbound hydrogen)   52
          Number of XB bonds                      0

 E+G (total)                   0 d,  0 h,  0 min,  0.001 sec
 distance/D3 list               ...        0 min,  0.000 sec (  0.290%)
 non bonded repulsion           ...        0 min,  0.000 sec (  1.958%)
 dCN                            ...        0 min,  0.000 sec (  5.206%)
 EEQ energy and q               ...        0 min,  0.000 sec (  4.237%)
 D3                             ...        0 min,  0.000 sec (  8.613%)
 EEQ gradient                   ...        0 min,  0.000 sec (  4.701%)
 bonds                          ...        0 min,  0.000 sec (  0.922%)
 bend and torsion               ...        0 min,  0.000 sec (  3.826%)
 bonded ATM                     ...        0 min,  0.000 sec (  1.481%)
 HB/XB (incl list setup)        ...        0 min,  0.000 sec (  9.161%)
 GBSA                           ...        0 min,  0.001 sec ( 62.222%)

         :::::::::::::::::::::::::::::::::::::::::::::::::::::
         ::                     SUMMARY                     ::
         :::::::::::::::::::::::::::::::::::::::::::::::::::::
         :: total energy              -7.489611164442 Eh    ::
         :: total w/o Gsolv           -7.440112268747 Eh    ::
         :: total w/o Gsasa/hb        -7.483349255512 Eh    ::
         :: gradient norm              0.167873368324 Eh/a0 ::
         ::.................................................::
         :: bond energy               -7.538480185629 Eh    ::
         :: angle energy               0.033871618951 Eh    ::
         :: torsion energy             0.022050294061 Eh    ::
         :: repulsion energy           0.457555758586 Eh    ::
         :: electrostat energy        -0.376533214065 Eh    ::
         :: dispersion energy         -0.028157297953 Eh    ::
         :: HB energy                 -0.000665486722 Eh    ::
         :: XB energy                  0.000000000000 Eh    ::
         :: bonded atm energy         -0.009753755977 Eh    ::
         :: external energy            0.000000000000 Eh    ::
         :: -> Gsolv                  -0.049498895695 Eh    ::
         ::    -> Gborn               -0.043236986765 Eh    ::
         ::    -> Gsasa                0.011664645128 Eh    ::
         ::    -> Ghb                 -0.018291493313 Eh    ::
         ::    -> Gshift               0.000364939255 Eh    ::
         :: add. restraining           0.000000000000 Eh    ::
         :: total charge               0.000000000000 e     ::
         ::.................................................::
         :: atomisation energy         0.000000000000 Eh    ::
         :::::::::::::::::::::::::::::::::::::::::::::::::::::

      ----------------------------------------------------------- 
     |                   =====================                   |
     |                        A N C O P T                        |
     |                   =====================                   |
     |               Approximate Normal Coordinate               |
     |                Rational Function Optimizer                |
      ----------------------------------------------------------- 

          ...................................................
          :                      SETUP                      :
          :.................................................:
          :   optimization level         verytight          :
          :   max. optcycles                    10          :
          :   ANC micro-cycles                  10          :
          :   degrees of freedom               120          :
          :.................................................:
          :   RF solver                   davidson          :
          :   write xtbopt.log                true          :
          :   linear?                        false          :
          :   energy convergence         0.1000000E-06 Eh   :
          :   grad. convergence          0.2000000E-03 Eh/α :
          :   maxmium RF displ.          1.0000000          :
          :   Hlow (freq-cutoff)         0.1000000E-01      :
          :   Hmax (freq-cutoff)         5.0000000          :
          :   S6 in model hess.         20.0000000          :
          ...................................................

generating ANC from model Hessian ...
Using GFN-FF Lindh-Hessian
 Shifting diagonal of input Hessian by    0.0000000000000000     
 Lowest  eigenvalues of input Hessian
    0.000000    0.000000    0.000000    0.000000    0.000000    0.000000
    0.016273    0.018565    0.023285    0.025984    0.046320    0.050182
    0.060462    0.066708    0.073337    0.085678    0.089487    0.098681
 Highest eigenvalues
    3.653546    3.915871    4.016545    4.101590    4.228193    4.275159


........................................................................
.............................. CYCLE    1 ..............................
........................................................................
     iter. time                 ...        0 min,  0.001 sec
 * total energy  :    -7.4896112 Eh     change        0.0000000E+00 Eh
   gradient norm :     0.1678734 Eh/α   predicted     0.0000000E+00 (    NaN%)
   displ. norm   :     0.0874193 α      lambda       -0.1107879E-01
   maximum displ.:     0.0315425 α      in ANC's #48, #107, #45, ...

........................................................................
.............................. CYCLE    2 ..............................
........................................................................
     iter. time                 ...        0 min,  0.001 sec
 * total energy  :    -7.4969691 Eh     change       -0.7357963E-02 Eh
   gradient norm :     0.0613319 Eh/α   predicted    -0.5584382E-02 ( -24.10%)
   displ. norm   :     0.0560898 α      lambda       -0.2567883E-02
   maximum displ.:     0.0161152 α      in ANC's #35, #107, #48, ...

........................................................................
.............................. CYCLE    3 ..............................
........................................................................
     iter. time                 ...        0 min,  0.001 sec
 * total energy  :    -7.4984162 Eh     change       -0.1447033E-02 Eh
   gradient norm :     0.0166435 Eh/α   predicted    -0.1288003E-02 ( -10.99%)
   displ. norm   :     0.0253378 α      lambda       -0.2408719E-03
   maximum displ.:     0.0095437 α      in ANC's #22, #13, #37, ...

........................................................................
.............................. CYCLE    4 ..............................
........................................................................
     iter. time                 ...        0 min,  0.001 sec
 * total energy  :    -7.4985900 Eh     change       -0.1738148E-03 Eh
   gradient norm :     0.0090365 Eh/α   predicted    -0.1252789E-03 ( -27.92%)
   displ. norm   :     0.0212164 α      lambda       -0.1041004E-03
   maximum displ.:     0.0100632 α      in ANC's #22, #37, #44, ...

........................................................................
.............................. CYCLE    5 ..............................
........................................................................
     iter. time                 ...        0 min,  0.001 sec
 * total energy  :    -7.4986515 Eh     change       -0.6155557E-04 Eh
   gradient norm :     0.0033653 Eh/α   predicted    -0.5208577E-04 ( -15.38%)
   displ. norm   :     0.0082286 α      lambda       -0.1592975E-04
   maximum displ.:     0.0036329 α      in ANC's #22, #37, #44, ...

........................................................................
.............................. CYCLE    6 ..............................
........................................................................
     iter. time                 ...        0 min,  0.001 sec
 * total energy  :    -7.4986633 Eh     change       -0.1175300E-04 Eh
   gradient norm :     0.0023151 Eh/α   predicted    -0.8129227E-05 ( -30.83%)
   displ. norm   :     0.0085891 α      lambda       -0.1069828E-04
   maximum displ.:     0.0031568 α      in ANC's #37, #44, #22, ...

........................................................................
.............................. CYCLE    7 ..............................
........................................................................
     iter. time                 ...        0 min,  0.001 sec
 * total energy  :    -7.4986699 Eh     change       -0.6621956E-05 Eh
   gradient norm :     0.0015850 Eh/α   predicted    -0.5363334E-05 ( -19.01%)
   displ. norm   :     0.0055295 α      lambda       -0.1584420E-05
   maximum displ.:     0.0021147 α      in ANC's #13, #3, #2, ...

........................................................................
.............................. CYCLE    8 ..............................
........................................................................
     iter. time                 ...        0 min,  0.001 sec
 * total energy  :    -7.4986716 Eh     change       -0.1667303E-05 Eh
   gradient norm :     0.0007781 Eh/α   predicted    -0.1087762E-05 ( -34.76%)
   displ. norm   :     0.0022411 α      lambda       -0.3426776E-06
   maximum displ.:     0.0009748 α      in ANC's #3, #4, #2, ...

........................................................................
.............................. CYCLE    9 ..............................
........................................................................
     iter. time                 ...        0 min,  0.001 sec
 * total energy  :    -7.4986720 Eh     change       -0.4610903E-06 Eh
   gradient norm :     0.0002813 Eh/α   predicted    -0.2381499E-06 ( -48.35%)
   displ. norm   :     0.0025862 α      lambda       -0.9967621E-07
   maximum displ.:     0.0015661 α      in ANC's #3, #2, #4, ...

........................................................................
.............................. CYCLE   10 ..............................
........................................................................
     iter. time                 ...        0 min,  0.001 sec
 * total energy  :    -7.4986722 Eh     change       -0.1785343E-06 Eh
   gradient norm :     0.0002595 Eh/α   predicted    -0.8351168E-07 ( -53.22%)
   displ. norm   :     0.0046263 α      lambda       -0.1435519E-06
   maximum displ.:     0.0029470 α      in ANC's #3, #2, #4, ...

   *** FAILED TO CONVERGE GEOMETRY OPTIMIZATION IN 10 ITERATIONS ***


 ANCopt (total)                0 d,  0 h,  0 min,  0.010 sec
 optimizer setup                ...        0 min,  0.000 sec (  0.842%)
 model hessian                  ...        0 min,  0.000 sec (  3.283%)
 ANC generation                 ...        0 min,  0.001 sec ( 14.896%)
 coordinate transformation      ...        0 min,  0.000 sec (  0.473%)
 single point calculation       ...        0 min,  0.007 sec ( 71.122%)
 optimization log               ...        0 min,  0.000 sec (  4.801%)
 hessian update                 ...        0 min,  0.000 sec (  0.579%)
 rational function              ...        0 min,  0.000 sec (  2.351%)

================
 final structure:
================
ATOM      1  C   GLY A  11      -1.751 -11.433  -0.625  1.00  0.00           C  
ATOM      2  O   GLY A  11      -2.273 -12.210  -1.382  1.00  0.00           O  
ATOM      3  N   GLY A  12      -0.759 -10.577  -0.993  1.00  0.00           N  
ATOM      4  CA  GLY A  12      -0.374 -10.468  -2.384  1.00  0.00           C  
ATOM      5  C   GLY A  12      -0.771  -9.131  -2.950  1.00  0.00           C  
ATOM      6  O   GLY A  12      -1.831  -8.656  -2.596  1.00  0.00           O  
ATOM      7  H   GLY A  12      -0.513  -9.763  -0.423  1.00  0.00           H  
ATOM      8  HA2 GLY A  12       0.703 -10.639  -2.463  1.00  0.00           H  
ATOM      9  HA3 GLY A  12      -0.886 -11.265  -2.933  1.00  0.00           H  
ATOM     10  N   GLY A  13       0.026  -8.459  -3.862  1.00  0.00           N  
ATOM     11  CA  GLY A  13       1.319  -8.900  -4.374  1.00  0.00           C  
ATOM     12  C   GLY A  13       1.520  -8.475  -5.802  1.00  0.00           C  
ATOM     13  O   GLY A  13       0.574  -8.477  -6.560  1.00  0.00           O  
ATOM     14  H   GLY A  13      -0.331  -7.616  -4.302  1.00  0.00           H  
ATOM     15  HA2 GLY A  13       2.109  -8.504  -3.733  1.00  0.00           H  
ATOM     16  HA3 GLY A  13       1.371  -9.993  -4.334  1.00  0.00           H  
ATOM     17  N   GLY A  14       2.785  -8.122  -6.226  1.00  0.00           N  
ATOM     18  CA  GLY A  14       3.003  -7.600  -7.563  1.00  0.00           C  
ATOM     19  C   GLY A  14       3.164  -6.102  -7.544  1.00  0.00           C  
ATOM     20  O   GLY A  14       2.265  -5.460  -7.040  1.00  0.00           O  
ATOM     21  H   GLY A  14       3.539  -7.947  -5.560  1.00  0.00           H  
ATOM     22  HA2 GLY A  14       3.852  -8.108  -8.024  1.00  0.00           H  
ATOM     23  HA3 GLY A  14       2.116  -7.850  -8.155  1.00  0.00           H  
ATOM     24  N   GLY A  15       4.262  -5.429  -8.061  1.00  0.00           N  
ATOM     25  CA  GLY A  15       5.425  -5.996  -8.750  1.00  0.00           C  
ATOM     26  C   GLY A  15       5.410  -5.676 -10.221  1.00  0.00           C  
ATOM     27  O   GLY A  15       4.640  -6.272 -10.943  1.00  0.00           O  
ATOM     28  H   GLY A  15       4.221  -4.414  -8.099  1.00  0.00           H  
ATOM     29  HA2 GLY A  15       6.337  -5.611  -8.285  1.00  0.00           H  
ATOM     30  HA3 GLY A  15       5.450  -7.079  -8.620  1.00  0.00           H  
ATOM     31  N   GLY A  16       6.269  -4.711 -10.706  1.00  0.00           N  
ATOM     32  CA  GLY A  16       6.177  -4.244 -12.082  1.00  0.00           C  
ATOM     33  C   GLY A  16       5.788  -2.783 -12.126  1.00  0.00           C  
ATOM     34  O   GLY A  16       4.813  -2.449 -11.504  1.00  0.00           O  
ATOM     35  H   GLY A  16       6.774  -4.087 -10.074  1.00  0.00           H  
ATOM     36  HA2 GLY A  16       7.128  -4.433 -12.590  1.00  0.00           H  
ATOM     37  HA3 GLY A  16       5.410  -4.843 -12.581  1.00  0.00           H  
ATOM     38  N   GLY A  17       6.549  -1.851 -12.856  1.00  0.00           N  
ATOM     39  CA  GLY A  17       7.730  -2.013 -13.566  1.00  0.00           C  
ATOM     40  H   GLY A  17       6.177  -0.886 -12.861  1.00  0.00           H  
ATOM     41  HA2 GLY A  17       8.530  -2.330 -12.876  1.00  0.00           H  
ATOM     42  HA3 GLY A  17       7.657  -2.830 -14.290  1.00  0.00           H  
END

 Bond Distances (Angstroems)
 ---------------------------
C1-O2=1.2045         C1-N3=1.3607         O2-C1=1.2045         N3-C1=1.3607         N3-C4=1.4475         N3-H7=1.0231         
C4-N3=1.4475         C4-C5=1.5055         C4-H8=1.0930         C4-H9=1.0946         C5-C4=1.5055         C5-O6=1.2143         
C5-N10=1.3841        O6-C5=1.2143         H7-N3=1.0231         H8-C4=1.0930         H9-C4=1.0946         N10-C5=1.3841        
N10-C11=1.4593       N10-H14=1.0166       C11-N10=1.4593       C11-C12=1.5042       C11-H15=1.0919       C11-H16=1.0947       
C12-C11=1.5042       C12-O13=1.2121       C12-N17=1.3801       O13-C12=1.2121       H14-N10=1.0166       H15-C11=1.0919       
H16-C11=1.0947       N17-C12=1.3801       N17-C18=1.4513       N17-H21=1.0206       C18-N17=1.4513       C18-C19=1.5064       
C18-H22=1.0919       C18-H23=1.0961       C19-C18=1.5064       C19-O20=1.2143       C19-N24=1.3875       O20-C19=1.2143       
H21-N17=1.0206       H22-C18=1.0919       H23-C18=1.0961       N24-C19=1.3875       N24-C25=1.4653       N24-H28=1.0167       
C25-N24=1.4653       C25-C26=1.5051       C25-H29=1.0941       C25-H30=1.0919       C26-C25=1.5051       C26-O27=1.2124       
C26-N31=1.3801       O27-C26=1.2124       H28-N24=1.0167       H29-C25=1.0941       H30-C25=1.0919       N31-C26=1.3801       
N31-C32=1.4559       N31-H35=1.0209       C32-N31=1.4559       C32-C33=1.5121       C32-H36=1.0942       C32-H37=1.0939       
C33-C32=1.5121       C33-O34=1.2041       C33-N38=1.4076       O34-C33=1.2041       H35-N31=1.0209       H36-C32=1.0942       
H37-C32=1.0939       N38-C33=1.4076       N38-C39=1.3876       N38-H40=1.0342       C39-N38=1.3876       C39-H41=1.1026       
C39-H42=1.0944       H40-N38=1.0342       H41-C39=1.1026       H42-C39=1.0944       
 C  H  Rav=1.0945 sigma=0.0028  Rmin=1.0919  Rmax=1.1026    12
 C  C  Rav=1.5067 sigma=0.0028  Rmin=1.5042  Rmax=1.5121     5
 N  H  Rav=1.0220 sigma=0.0059  Rmin=1.0166  Rmax=1.0342     6
 N  C  Rav=1.4139 sigma=0.0370  Rmin=1.3607  Rmax=1.4653    12
 O  C  Rav=1.2103 sigma=0.0043  Rmin=1.2041  Rmax=1.2143     6

 selected bond angles (degree)
 --------------------
N3-C1-O2=123.55                C4-N3-C1=120.05                H7-N3-C1=121.65                H7-N3-C4=114.32                
C5-C4-N3=110.99                H8-C4-N3=108.63                H8-C4-C5=111.77                H9-C4-N3=107.66                
H9-C4-C5=109.56                H9-C4-H8=108.11                O6-C5-C4=117.88                N10-C5-C4=121.81               
N10-C5-O6=120.30               C11-N10-C5=126.48              H14-N10-C5=119.07              H14-N10-C11=114.20             

 selected dihedral angles (degree)
 ---------------------------------
C4-N3-C1-O2=  6.50            H7-N3-C1-O2=162.76            C5-C4-N3-C1=110.96            C5-C4-N3-H7=313.05            
H8-C4-N3-C1=234.23            H8-C4-N3-H7= 76.31            H9-C4-N3-C1=351.07            H9-C4-N3-H7=193.16            
O6-C5-C4-N3=322.02            O6-C5-C4-H8=200.58            O6-C5-C4-H9= 80.77            N10-C5-C4-N3=142.96           
N10-C5-C4-H8= 21.52           N10-C5-C4-H9=261.71           C11-N10-C5-C4=358.78          C11-N10-C5-O6=179.75          
H14-N10-C5-C4=172.66          H14-N10-C5-O6=353.63          
           -------------------------------------------------
          |                Final Singlepoint                |
           -------------------------------------------------
         :::::::::::::::::::::::::::::::::::::::::::::::::::::
         ::                     SUMMARY                     ::
         :::::::::::::::::::::::::::::::::::::::::::::::::::::
         :: total energy              -7.498672430689 Eh    ::
         :: total w/o Gsolv           -7.449462024887 Eh    ::
         :: total w/o Gsasa/hb        -7.492596094859 Eh    ::
         :: gradient norm              0.000330449390 Eh/a0 ::
         ::.................................................::
         :: bond energy               -7.557671124720 Eh    ::
         :: angle energy               0.033456363493 Eh    ::
         :: torsion energy             0.025202692581 Eh    ::
         :: repulsion energy           0.461217954015 Eh    ::
         :: electrostat energy        -0.376973839603 Eh    ::
         :: dispersion energy         -0.028165251198 Eh    ::
         :: HB energy                 -0.000653284547 Eh    ::
         :: XB energy                  0.000000000000 Eh    ::
         :: bonded atm energy         -0.009542336902 Eh    ::
         :: external energy            0.000000000000 Eh    ::
         :: -> Gsolv                  -0.049210405803 Eh    ::
         ::    -> Gborn               -0.043134069972 Eh    ::
         ::    -> Gsasa                0.011695242814 Eh    ::
         ::    -> Ghb                 -0.018136517899 Eh    ::
         ::    -> Gshift               0.000364939255 Eh    ::
         :: add. restraining           0.003666801993 Eh    ::
         :: total charge               0.000000000000 e     ::
         ::.................................................::
         :: atomisation energy         0.000000000000 Eh    ::
         :::::::::::::::::::::::::::::::::::::::::::::::::::::

           -------------------------------------------------
          |                Property Printout                |
           -------------------------------------------------
           -------------------------------------------------
          |                Geometry Summary                 |
           -------------------------------------------------

      molecular mass/u    :      342.3084131
   center of mass at/Å    :        2.6564662      -6.8902131      -7.1181433
  moments of inertia/u·Å² :        0.4323808E+03   0.1108608E+05   0.1123824E+05
rotational constants/cm⁻¹ :        0.3898793E-01   0.1520612E-02   0.1500024E-02

 * 34 selected distances

     #   Z          #   Z                                           value/Å
     1   6  C       3   7  N                                      1.3606632
     3   7  N       4   6  C                                      1.4475275
     5   6  C       6   8  O                                      1.2143377
     3   7  N       7   1  H                                      1.0231327
     4   6  C       8   1  H                                      1.0930360
     4   6  C       9   1  H                                      1.0946304
     5   6  C      10   7  N                                      1.3841480
    10   7  N      11   6  C                                      1.4592591
    12   6  C      13   8  O                                      1.2121383
    10   7  N      14   1  H                                      1.0166112 (min)
    11   6  C      15   1  H                                      1.0918903
    11   6  C      16   1  H                                      1.0946517
    12   6  C      17   7  N                                      1.3801032
    17   7  N      18   6  C                                      1.4513225
    19   6  C      20   8  O                                      1.2143160
    17   7  N      21   1  H                                      1.0205784
    18   6  C      22   1  H                                      1.0919074
    18   6  C      23   1  H                                      1.0961247
    19   6  C      24   7  N                                      1.3875167
    24   7  N      25   6  C                                      1.4652562 (max)
    26   6  C      27   8  O                                      1.2124116
    24   7  N      28   1  H                                      1.0166537
    25   6  C      29   1  H                                      1.0940845
    25   6  C      30   1  H                                      1.0919407
    26   6  C      31   7  N                                      1.3801175
    31   7  N      32   6  C                                      1.4559387
    33   6  C      34   8  O                                      1.2040653
    31   7  N      35   1  H                                      1.0209476
    32   6  C      36   1  H                                      1.0941983
    32   6  C      37   1  H                                      1.0939164
    33   6  C      38   7  N                                      1.4075841
    38   7  N      39   6  C                                      1.3875825
    38   7  N      40   1  H                                      1.0341536
    39   6  C      42   1  H                                      1.0944415

 * 4 distinct bonds (by element types)

   Z      Z             #   av. dist./Å        max./Å        min./Å
   1 H    6 C          11     1.0937111     1.0961247     1.0918903
   1 H    7 N           6     1.0220129     1.0341536     1.0166112
   6 C    7 N          12     1.4139183     1.4652562     1.3606632
   6 C    8 O           5     1.2114538     1.2143377     1.2040653


optimized geometry written to: xtbopt.pdb


           -------------------------------------------------
          | TOTAL ENERGY               -7.498672430689 Eh   |
          | GRADIENT NORM               0.000330449390 Eh/α |
           -------------------------------------------------
########################################################################
[WARNING] Runtime exception occurred
-1- gfnff_setup: Could not read topology file.
########################################################################

------------------------------------------------------------------------
 unit  open   action     filename
   10 false : read       xtb_settings.inp
   10 false : read       substructure_36.pdb
   10 false : read       xtb_settings.inp
   10 false : written    gfnff_topo
   10 false : written    gfnff_adjacency
   10 false : written    gfnff_charges
   10 false : deleted    .xtboptok
   10 false : replaced   xtbopt.log
   11 false : created    .xtboptok
   11 false : replaced   gfnff_charges
   10 false : replaced   xtbopt.pdb

------------------------------------------------------------------------
 * finished run on 2025/05/27 at 09:37:47.406     
------------------------------------------------------------------------
 total:
 * wall-time:     0 d,  0 h,  0 min,  0.015 sec
 *  cpu-time:     0 d,  0 h,  0 min,  0.015 sec
 * ratio c/w:     0.999 speedup
 SCF:
 * wall-time:     0 d,  0 h,  0 min,  0.001 sec
 *  cpu-time:     0 d,  0 h,  0 min,  0.001 sec
 * ratio c/w:     1.001 speedup
 ANC optimizer:
 * wall-time:     0 d,  0 h,  0 min,  0.011 sec
 *  cpu-time:     0 d,  0 h,  0 min,  0.011 sec
 * ratio c/w:     0.999 speedup

