      -----------------------------------------------------------      
     |                   =====================                   |     
     |                           x T B                           |     
     |                   =====================                   |     
     |                         S. Grimme                         |     
     |          Mulliken Center for Theoretical Chemistry        |     
     |                    University of Bonn                     |     
      -----------------------------------------------------------      

   * xtb version 6.6.1 (8d0f1dd) compiled by 'conda@1efc2f54142f' on 2023-08-01

   xtb is free software: you can redistribute it and/or modify it under
   the terms of the GNU Lesser General Public License as published by
   the Free Software Foundation, either version 3 of the License, or
   (at your option) any later version.
   
   xtb is distributed in the hope that it will be useful,
   but WITHOUT ANY WARRANTY; without even the implied warranty of
   MERCHANTABILITY or FITNESS FOR A PARTICULAR PURPOSE.  See the
   GNU Lesser General Public License for more details.
   
   Cite this work as:
   * C. Bannwarth, E. Caldeweyher, S. Ehlert, A. Hansen, P. Pracht,
     J. Seibert, S. Spicher, S. Grimme, WIREs Comput. Mol. Sci., 2020, 11,
     e01493. DOI: 10.1002/wcms.1493
   
   for GFN2-xTB:
   * C. Bannwarth, S. Ehlert and S. Grimme., J. Chem. Theory Comput., 2019,
     15, 1652-1671. DOI: 10.1021/acs.jctc.8b01176
   for GFN1-xTB:
   * S. Grimme, C. Bannwarth, P. Shushkov, J. Chem. Theory Comput., 2017,
     13, 1989-2009. DOI: 10.1021/acs.jctc.7b00118
   for GFN0-xTB:
   * P. Pracht, E. Caldeweyher, S. Ehlert, S. Grimme, ChemRxiv, 2019, preprint.
     DOI: 10.26434/chemrxiv.8326202.v1
   for GFN-FF:
   * S. Spicher and S. Grimme, Angew. Chem. Int. Ed., 2020, 59, 15665-15673.
     DOI: 10.1002/anie.202004239
   
   for ALPB and GBSA implicit solvation:
   * S. Ehlert, M. Stahn, S. Spicher, S. Grimme, J. Chem. Theory Comput.,
     2021, 17, 4250-4261. DOI: 10.1021/acs.jctc.1c00471
   
   for DFT-D4:
   * E. Caldeweyher, C. Bannwarth and S. Grimme, J. Chem. Phys., 2017,
     147, 034112. DOI: 10.1063/1.4993215
   * E. Caldeweyher, S. Ehlert, A. Hansen, H. Neugebauer, S. Spicher,
     C. Bannwarth and S. Grimme, J. Chem. Phys., 2019, 150, 154122.
     DOI: 10.1063/1.5090222
   * E. Caldeweyher, J.-M. Mewes, S. Ehlert and S. Grimme, Phys. Chem. Chem. Phys.
     2020, 22, 8499-8512. DOI: 10.1039/D0CP00502A
   
   for sTDA-xTB:
   * S. Grimme and C. Bannwarth, J. Chem. Phys., 2016, 145, 054103.
     DOI: 10.1063/1.4959605
   
   in the mass-spec context:
   * V. Asgeirsson, C. Bauer and S. Grimme, Chem. Sci., 2017, 8, 4879.
     DOI: 10.1039/c7sc00601b
   * J. Koopman and S. Grimme, ACS Omega 2019, 4, 12, 15120-15133.
     DOI: 10.1021/acsomega.9b02011
   
   for metadynamics refer to:
   * S. Grimme, J. Chem. Theory Comput., 2019, 155, 2847-2862
     DOI: 10.1021/acs.jctc.9b00143
   
   for SPH calculations refer to:
   * S. Spicher and S. Grimme, J. Chem. Theory Comput., 2021, 17, 1701-1714
     DOI: 10.1021/acs.jctc.0c01306
   
   with help from (in alphabetical order)
   P. Atkinson, C. Bannwarth, F. Bohle, G. Brandenburg, E. Caldeweyher
   M. Checinski, S. Dohm, S. Ehlert, S. Ehrlich, I. Gerasimov, C. Hölzer
   A. Katbashev, J. Koopman, C. Lavigne, S. Lehtola, F. März, M. Müller,
   F. Musil, H. Neugebauer, J. Pisarek, C. Plett, P. Pracht, F. Pultar,
   J. Seibert, P. Shushkov, S. Spicher, M. Stahn, M. Steiner, T. Strunk,
   J. Stückrath, T. Rose, and J. Unsleber
   
 * started run on 2025/05/27 at 09:37:40.253     

           -------------------------------------------------
          |                Calculation Setup                |
           -------------------------------------------------

          program call               : xtb substructure_20.pdb --gfnff --input xtb_settings.inp --opt vtight --alpb water --verbose
          coordinate file            : substructure_20.pdb
          xtbhome directory          : /home/dargen3
          path for xtb               : /home/dargen3
          xcontrol input file        : xtb_settings.inp
          omp threads                :                     1

$$$$$$$$$$$$$$$$$$$$$$$$$$$$$$$$$$$$$$$$$$$$$$$$$$$$$$$$$$$$$$$$$$$$$$$$
 CONSTRAINTS & SCANS: DEBUG SECTION
$$$$$$$$$$$$$$$$$$$$$$$$$$$$$$$$$$$$$$$$$$$$$$$$$$$$$$$$$$$$$$$$$$$$$$$$
   ID    Z sym.   atoms
    1    6  C     1, 4, 5, 11, 12, 18, 19, 25, 26, 32, 33, 39
    2    8  O     2, 6, 13, 20, 27, 34
    3    7  N     3, 10, 17, 24, 31, 38
    4    1  H     7-9, 14-16, 21-23, 28-30, 35-37, 40-42
> constrain
-> atoms: 1, 2, 3, 4, 5, 6, 7, 8, 9, 10, 11, 12, 13, 14, 15, 16, 18, 24, 25, 26, 27, 28, 29, 30, 31, 32, 33, 34, 35, 36, 37, 38, 39, 40, 41, 42
--> 1: 1
--> 2: 2
--> 3: 3
--> 4: 4
--> 5: 5
--> 6: 6
--> 7: 7
--> 8: 8
--> 9: 9
--> 10: 10
--> 11: 11
--> 12: 12
--> 13: 13
--> 14: 14
--> 15: 15
--> 16: 16
--> 17: 18
--> 18: 24
--> 19: 25
--> 20: 26
--> 21: 27
--> 22: 28
--> 23: 29
--> 24: 30
--> 25: 31
--> 26: 32
--> 27: 33
--> 28: 34
--> 29: 35
--> 30: 36
--> 31: 37
--> 32: 38
--> 33: 39
--> 34: 40
--> 35: 41
--> 36: 42
-> force constant=1.0
$$$$$$$$$$$$$$$$$$$$$$$$$$$$$$$$$$$$$$$$$$$$$$$$$$$$$$$$$$$$$$$$$$$$$$$$
           -------------------------------------------------
          |                   Constraints                   |
           -------------------------------------------------

 * 36 constrained atom positions
   positions refering to input geometry

     #   Z                                   position/Å      displ./Å
     1   6 C     -1.8330002   -11.3800011    -0.6430001     0.0000000
     2   8 O     -2.4320002   -12.0650011    -1.4440001     0.0000000
     3   7 N     -0.7400001   -10.6190010    -0.9970001     0.0000000
     4   6 C     -0.3730000   -10.4770010    -2.3880002     0.0000000
     5   6 C     -0.7330001    -9.0950008    -2.8910003     0.0000000
     6   8 O     -1.7570002    -8.5880008    -2.4850002     0.0000000
     7   1 H     -0.3820000    -9.8890009    -0.3790000     0.0000000
     8   1 H      0.6930001   -10.6750010    -2.4930002     0.0000000
     9   1 H     -0.9270001   -11.2220010    -2.9570003     0.0000000
    10   7 N      0.0570000    -8.4300008    -3.8100004     0.0000000
    11   6 C      1.3240001    -8.8870008    -4.3620004     0.0000000
    12   6 C      1.5050001    -8.4360008    -5.7930005     0.0000000
    13   8 O      0.5380000    -8.3420008    -6.5180006     0.0000000
    14   1 H     -0.2740000    -7.5530007    -4.2040004     0.0000000
    15   1 H      2.1400002    -8.5570008    -3.7410003     0.0000000
    16   1 H      1.3290001    -9.9940009    -4.3710004     0.0000000
    18   6 C      3.0050003    -7.6070007    -7.5660007     0.0000000
    24   7 N      4.2780004    -5.4330005    -8.0330007     0.0000000
    25   6 C      5.4280005    -5.9890006    -8.7440008     0.0000000
    26   6 C      5.3920005    -5.6610005   -10.2150009     0.0000000
    27   8 O      4.6200004    -6.2570006   -10.9350010     0.0000000
    28   1 H      4.2540004    -4.4160004    -8.0320007     0.0000000
    29   1 H      6.3480006    -5.6210005    -8.2940008     0.0000000
    30   1 H      5.4470005    -7.0800007    -8.6300008     0.0000000
    31   7 N      6.2370006    -4.6830004   -10.6960010     0.0000000
    32   6 C      6.1780006    -4.2520004   -12.0880011     0.0000000
    33   6 C      5.7590005    -2.8030003   -12.1830011     0.0000000
    34   8 O      4.7330004    -2.4800002   -11.6230011     0.0000000
    35   1 H      6.7490006    -4.0660004   -10.0660009     0.0000000
    36   1 H      7.1520007    -4.4180004   -12.5530012     0.0000000
    37   1 H      5.4440005    -4.8750005   -12.5930012     0.0000000
    38   7 N      6.4910006    -1.8490002   -12.8730012     0.0000000
    39   6 C      7.7600007    -2.0220002   -13.5740013     0.0000000
    40   1 H      6.1170006    -0.9010001   -12.9500012     0.0000000
    41   1 H      8.5390008    -2.2620002   -12.8470012     0.0000000
    42   1 H      7.6630007    -2.8760003   -14.2640013     0.0000000

     applying 630 atom pairwise harmonic potentials
       applied force constant per pair:     0.0285714
     effective force constant per atom:     1.0000000
         constraining energy/grad norm:     0.0000000     0.0000000

     total constraint energy/grad norm:     0.0000000     0.0000000

          charge from pdb residues: 0

          entering GFN-FF setup routine... 42

          ==================== Thresholds ====================
          CN  :   150.00000
          rep :   500.00000
          disp:  2500.00000
          HB1 :   250.00000
          HB2 :   450.00000

          Pauling EN used:
          Z : 1  EN :  2.20
          Z : 6  EN :  2.55
          Z : 7  EN :  3.04
          Z : 8  EN :  3.44
          electric field strengths (au): 0.000

           ------------------------------------------------- 
          |           Force Field Initialization            |
           ------------------------------------------------- 

          distances ...
          ----------------------------------------
          generating topology and atomic info file ...
          pair mat ...
          computing topology distances matrix with Floyd-Warshall algo ...
          making topology EEQ charges ...
          #fragments for EEQ constrain from pdb file: 7
          ----------------------------------------
          generating topology and atomic info file ...
          pair mat ...
          computing topology distances matrix with Floyd-Warshall algo ...
          making topology EEQ charges ...
          #fragments for EEQ constrain from pdb file: 7
          rings ...
          # BATM   334
          # H in HB   18
          doing iterative Hueckel for 6 subsystem(s) ...
          iterative Hueckel run to get P ...
Hueckel system :  1 charge :   0 ndim/Nel :    3    3   eps(HOMO/LUMO)   -0.953545   -0.953545
Hueckel system :  2 charge :   0 ndim/Nel :    3    4   eps(HOMO/LUMO)   -0.911563   -0.911563
Hueckel system :  3 charge :   0 ndim/Nel :    3    4   eps(HOMO/LUMO)   -0.911539   -0.911539
Hueckel system :  4 charge :   0 ndim/Nel :    3    4   eps(HOMO/LUMO)   -0.912604   -0.912604
Hueckel system :  5 charge :   0 ndim/Nel :    3    4   eps(HOMO/LUMO)   -0.910014   -0.910014
Hueckel system :  6 charge :   0 ndim/Nel :    4    5   eps(HOMO/LUMO)    1.305314    1.305314
WARNING: probably wrong pi occupation for system 6. Second attempt with Nel=Nel-1!
 at,nb,topo%hyb,Npiel:          33  C             3           2           1
 at,nb,topo%hyb,Npiel:          34  O             1           2           1
 at,nb,topo%hyb,Npiel:          38  N             3           3           2
 at,nb,topo%hyb,Npiel:          39  C             3           2           1

          eigenvalues
 #    :           1          2          3          4
 occ. :        2.000      1.987      0.013      0.000
 eps  :        -4.349     -2.183      1.305      3.389
Hueckel system :  6 charge :   0 ndim/Nel :    4    4   eps(HOMO/LUMO)   -2.182830    1.305314

  atom   neighbors  erfCN metchar sp-hybrid imet pi  qest     coordinates
    1   C      2    1.93   0.00        -2    0    1   0.120   -3.463868  -21.505083   -1.215094
    2   O      1    0.98   0.00         2    0    1  -0.120   -4.595814  -22.799546   -2.728765
    3   N      3    2.79   0.00        -3    0    1  -0.166   -1.398397  -20.067002   -1.884057
    4   C      4    3.49   0.00         3    0    0   0.005   -0.704868  -19.798661   -4.512666
    5   C      3    2.79   0.00         2    0    1   0.174   -1.385169  -17.187059   -5.463198
    6   O      1    0.98   0.00         2    0    1  -0.352   -3.320249  -16.228968   -4.695969
    7   H      1    0.98   0.00         0    0    0   0.153   -0.721875  -18.687502   -0.716206
    8   H      1    0.97   0.00         0    0    0   0.093    1.309580  -20.172826   -4.711087
    9   H      1    0.97   0.00         0    0    0   0.093   -1.751776  -21.206507   -5.587920
   10   N      3    2.79   0.00        -3    0    1  -0.168    0.107714  -15.930391   -7.199857
   11   C      4    3.49   0.00         3    0    0   0.006    2.501997  -16.793996   -8.242985
   12   C      3    2.79   0.00         2    0    1   0.174    2.844038  -15.941730  -10.947183
   13   O      1    0.98   0.00         2    0    1  -0.352    1.016673  -15.764095  -12.317235
   14   H      1    0.98   0.00         0    0    0   0.155   -0.517785  -14.273101   -7.944409
   15   H      1    0.97   0.00         0    0    0   0.092    4.044014  -16.170386   -7.069465
   16   H      1    0.97   0.01         0    0    0   0.092    2.511446  -18.885923   -8.259993
   17   N      3    2.79   0.00        -3    0    1  -0.168    5.255328  -15.414496  -11.795670
   18   C      4    3.49   0.00         3    0    0   0.006    5.678627  -14.375147  -14.297668
   19   C      3    2.79   0.00         2    0    1   0.175    6.026337  -11.536778  -14.169166
   20   O      1    0.98   0.00         2    0    1  -0.353    4.378495  -10.327353  -13.126038
   21   H      1    0.98   0.00         0    0    0   0.154    6.734984  -15.242531  -10.567348
   22   H      1    0.97   0.00         0    0    0   0.093    7.252769  -15.320010  -15.204736
   23   H      1    0.97   0.00         0    0    0   0.093    3.979763  -14.768210  -15.414496
   24   N      3    2.79   0.00        -3    0    1  -0.165    8.084248  -10.266882  -15.180170
   25   C      4    3.49   0.00         3    0    0   0.004   10.257433  -11.317570  -16.523765
   26   C      3    2.79   0.00         2    0    1   0.178   10.189403  -10.697740  -19.303552
   27   O      1    0.98   0.00         2    0    1  -0.354    8.730535  -11.824016  -20.664155
   28   H      1    0.98   0.00         0    0    0   0.150    8.038895   -8.345031  -15.178280
   29   H      1    0.97   0.00         0    0    0   0.093   11.995981  -10.622151  -15.673388
   30   H      1    0.97   0.00         0    0    0   0.093   10.293338  -13.379261  -16.308336
   31   N      3    2.79   0.00        -3    0    1  -0.170   11.786222   -8.849587  -20.212511
   32   C      4    3.49   0.00         3    0    0   0.006   11.674728   -8.035115  -22.843009
   33   C      3    2.79   0.00         2    0    1   0.195   10.882933   -5.296902  -23.022533
   34   O      1    0.98   0.00         2    0    1  -0.357    8.944074   -4.686521  -21.964287
   35   H      1    0.98   0.00         0    0    0   0.147   12.753762   -7.683626  -19.021983
   36   H      1    0.97   0.00         0    0    0   0.090   13.515321   -8.348810  -23.721732
   37   H      1    0.97   0.00         0    0    0   0.090   10.287669   -9.212415  -23.797321
   38   N      3    2.79   0.00         3    0    1  -0.226   12.266212   -3.494104  -24.326444
   39   C      3    2.78   0.00         2    0    1  -0.008   14.664275   -3.821026  -25.651142
   40   H      1    0.98   0.00         0    0    0   0.123   11.559455   -1.702643  -24.471953
   41   H      1    0.97   0.00         0    0    0   0.055   16.136371   -4.274560  -24.277312
   42   H      1    0.97   0.01         0    0    0   0.055   14.480971   -5.434852  -26.955053

molecular fragment  # atoms  topo charge
       1             2            -0.000
       2             7            -0.000
       3             7            -0.000
       4             7            -0.000
       5             7             0.000
       6             7            -0.000
       7             5             0.000


          #atoms :   42
          #bonds :   41

 bond atoms        type  in ring    R      R0    piBO    fqq  kbond(tot)  alp
 O  C     2    1      2    0     1.212   0.996   0.799   1.047  -0.252   0.584
 N  C     3    1      2    0     1.378   1.215   0.504   1.047  -0.235   0.524
 C  N     4    3      1    0     1.446   1.326 -99.000   1.033  -0.151   0.496
 C  C     5    4      1    0     1.514   1.332 -99.000   1.013  -0.162   0.475
 O  C     6    5      2    0     1.213   1.031   0.856   1.047  -0.262   0.584
 H  N     7    3      1    0     1.021   0.890 -99.000   1.047  -0.176   0.551
 H  C     8    4      1    0     1.089   0.977 -99.000   1.018  -0.164   0.482
 H  C     9    4      1    0     1.089   0.977 -99.000   1.018  -0.164   0.482
 N  C    10    5      2    0     1.382   1.263   0.503   1.047  -0.234   0.524
 C  N    11   10      1    0     1.456   1.326 -99.000   1.035  -0.151   0.496
 C  C    12   11      1    0     1.511   1.332 -99.000   1.011  -0.162   0.475
 O  C    13   12      2    0     1.212   1.031   0.856   1.047  -0.262   0.584
 H  N    14   10      1    0     1.017   0.890 -99.000   1.047  -0.176   0.551
 H  C    15   11      1    0     1.077   0.976 -99.000   1.017  -0.164   0.482
 H  C    16   11      1    0     1.107   0.976 -99.000   1.017  -0.164   0.482
 N  C    17   12      2    0     1.381   1.263   0.503   1.047  -0.234   0.524
 C  N    18   17      1    0     1.451   1.326 -99.000   1.034  -0.151   0.496
 C  C    19   18      1    0     1.515   1.332 -99.000   1.012  -0.162   0.475
 O  C    20   19      2    0     1.214   1.031   0.856   1.047  -0.262   0.584
 H  N    21   17      1    0     1.022   0.890 -99.000   1.047  -0.176   0.551
 H  C    22   18      1    0     1.084   0.977 -99.000   1.017  -0.164   0.482
 H  C    23   18      1    0     1.096   0.976 -99.000   1.017  -0.164   0.482
 N  C    24   19      2    0     1.387   1.263   0.503   1.047  -0.234   0.524
 C  N    25   24      1    0     1.462   1.325 -99.000   1.031  -0.151   0.496
 C  C    26   25      1    0     1.508   1.332 -99.000   1.015  -0.163   0.475
 O  C    27   26      2    0     1.212   1.031   0.856   1.047  -0.262   0.584
 H  N    28   24      1    0     1.017   0.890 -99.000   1.047  -0.176   0.551
 H  C    29   25      1    0     1.088   0.976 -99.000   1.019  -0.164   0.482
 H  C    30   25      1    0     1.097   0.976 -99.000   1.019  -0.164   0.482
 N  C    31   26      2    0     1.379   1.263   0.504   1.047  -0.234   0.524
 C  N    32   31      1    0     1.458   1.326 -99.000   1.034  -0.151   0.496
 C  C    33   32      1    0     1.511   1.332 -99.000   1.011  -0.162   0.475
 O  C    34   33      2    0     1.213   1.018   0.930   1.047  -0.274   0.584
 H  N    35   31      1    0     1.020   0.890 -99.000   1.047  -0.176   0.551
 H  C    36   32      1    0     1.092   0.976 -99.000   1.018  -0.164   0.482
 H  C    37   32      1    0     1.087   0.977 -99.000   1.018  -0.164   0.482
 N  C    38   33      2    0     1.386   1.291   0.346   1.047  -0.203   0.524
 C  N    39   38      2    0     1.460   1.189   0.906   1.006  -0.302   0.524
 H  N    40   38      1    0     1.022   0.890 -99.000   1.047  -0.176   0.551
 H  C    41   39      1    0     1.092   0.949 -99.000   1.029  -0.179   0.490
 H  C    42   39      1    0     1.102   0.949 -99.000   1.029  -0.179   0.490
          #angl  :   67

 angle atoms        phi0    phi      FC  pi rings
    1    3    2   145.000 122.290   0.082 F   0
    3    4    1   115.000 120.184   0.411 F   0
    3    7    1   115.000 121.152   0.335 F   0
    3    7    4   104.000 115.029   0.182 F   0
    4    5    3   109.500 110.424   0.307 F   0
    4    8    3   109.500 108.865   0.253 F   0
    4    8    5   109.500 111.504   0.251 F   0
    4    9    3   109.500 107.845   0.253 F   0
    4    9    5   109.500 109.264   0.251 F   0
    4    9    8   108.600 108.854   0.209 F   0
    5    6    4   120.000 118.110   0.178 F   0
    5   10    4   120.000 121.605   0.243 F   0
    5   10    6   120.000 120.268   0.177 F   0
   10   11    5   115.000 126.763   0.409 F   0
   10   14    5   115.000 119.110   0.333 F   0
   10   14   11   104.000 114.028   0.182 F   0
   11   12   10   109.500 111.693   0.307 F   0
   11   15   10   109.500 110.155   0.253 F   0
   11   15   12   109.500 111.329   0.252 F   0
   11   16   10   109.500 108.721   0.253 F   0
   11   16   12   109.500 106.868   0.252 F   0
   11   16   15   108.600 107.914   0.209 F   0
   12   13   11   120.000 119.597   0.178 F   0
   12   17   11   120.000 118.604   0.243 F   0
   12   17   13   120.000 121.794   0.177 F   0
   17   18   12   115.000 121.051   0.409 F   0
   17   21   12   115.000 121.278   0.333 F   0
   17   21   18   104.000 115.367   0.182 F   0
   18   19   17   109.500 110.709   0.307 F   0
   18   22   17   109.500 110.361   0.253 F   0
   18   22   19   109.500 112.583   0.251 F   0
   18   23   17   109.500 107.068   0.253 F   0
   18   23   19   109.500 108.185   0.251 F   0
   18   23   22   108.600 107.708   0.209 F   0
   19   20   18   120.000 117.114   0.178 F   0
   19   24   18   120.000 123.951   0.243 F   0
   19   24   20   120.000 118.933   0.176 F   0
   24   25   19   115.000 128.387   0.409 F   0
   24   28   19   115.000 117.740   0.334 F   0
   24   28   25   104.000 113.532   0.182 F   0
   25   26   24   109.500 111.902   0.307 F   0
   25   29   24   109.500 109.591   0.253 F   0
   25   29   26   109.500 110.493   0.251 F   0
   25   30   24   109.500 109.956   0.253 F   0
   25   30   26   109.500 108.552   0.251 F   0
   25   30   29   108.600 106.180   0.209 F   0
   26   27   25   120.000 119.194   0.178 F   0
   26   31   25   120.000 118.685   0.242 F   0
   26   31   27   120.000 122.120   0.176 F   0
   31   32   26   115.000 121.178   0.409 F   0
   31   35   26   115.000 121.418   0.333 F   0
   31   35   32   104.000 115.544   0.182 F   0
   32   33   31   109.500 110.766   0.307 F   0
   32   36   31   109.500 108.992   0.253 F   0
   32   36   33   109.500 111.485   0.251 F   0
   32   37   31   109.500 107.537   0.253 F   0
   32   37   33   109.500 109.453   0.251 F   0
   32   37   36   108.600 108.499   0.209 F   0
   33   34   32   120.000 117.445   0.177 F   0
   33   38   32   120.000 123.000   0.241 F   0
   33   38   34   120.000 119.555   0.174 F   0
   38   39   33   113.000 128.049   0.042 F   0
   38   40   33   113.000 118.854   0.211 F   0
   38   40   39   113.000 113.067   0.105 F   0
   39   41   38   120.000 109.048   0.204 F   0
   39   42   38   120.000 108.414   0.204 F   0
   39   42   41   120.000 108.011   0.167 F   0
 torsion atoms        nrot   rings    phi0    phi      FC
    3    1    4    2   2      0     180.000   8.115   0.765
    3    1    7    2   2      0     180.000 165.556   1.135
    4    3    5    1   3      0     180.000 106.152   0.024
    4    3    5    7   3      0     180.000  52.605   0.032
    4    3    8    1   3      0     180.000 131.125   0.034
    4    3    8    7   3      0     180.000  70.119   0.045
    4    3    9    1   3      0     180.000  13.171   0.034
    4    3    9    7   3      0     180.000 171.927   0.045
    5    4    6    3   3      0     180.000  37.028   0.066
    5    4    6    8   3      0     180.000 158.196   0.115
    5    4    6    9   3      0     180.000  81.431   0.115
    5    4   10    3   3      0     180.000 144.425   0.041
    5    4   10    8   3      0     180.000  23.257   0.072
    5    4   10    9   3      0     180.000  97.116   0.072
   10    5   11    4   2      0     180.000   3.247   0.614
   10    5   11    6   2      0     180.000 178.237   0.833
   10    5   14    4   2      0     180.000 172.908   0.911
   10    5   14    6   2      0     180.000   5.608   1.235
   11   10   12    5   3      0     180.000 146.438   0.022
   11   10   12   14   3      0     180.000  29.885   0.032
   11   10   15    5   3      0     180.000  89.300   0.032
   11   10   15   14   3      0     180.000  94.378   0.045
   11   10   16    5   3      0     180.000  28.757   0.032
   11   10   16   14   3      0     180.000 147.566   0.045
   12   11   13   10   3      0     180.000  33.409   0.066
   12   11   13   15   3      0     180.000 157.011   0.115
   12   11   13   16   3      0     180.000  85.379   0.115
   12   11   17   10   3      0     180.000 147.373   0.041
   12   11   17   15   3      0     180.000  23.771   0.072
   12   11   17   16   3      0     180.000  93.839   0.072
   17   12   18   11   2      0     180.000 174.447   0.614
   17   12   18   13   2      0     180.000   6.352   0.832
   17   12   21   11   2      0     180.000  12.485   0.911
   17   12   21   13   2      0     180.000 168.314   1.235
   18   17   19   12   3      0     180.000  98.289   0.022
   18   17   19   21   3      0     180.000  64.680   0.032
   18   17   22   12   3      0     180.000 136.385   0.032
   18   17   22   21   3      0     180.000  60.645   0.045
   18   17   23   12   3      0     180.000  19.427   0.032
   18   17   23   21   3      0     180.000 177.604   0.045
   19   18   20   17   3      0     180.000  54.202   0.066
   19   18   20   22   3      0     180.000 178.264   0.115
   19   18   20   23   3      0     180.000  62.829   0.115
   19   18   24   17   3      0     180.000 126.295   0.041
   19   18   24   22   3      0     180.000   2.232   0.072
   19   18   24   23   3      0     180.000 116.674   0.072
   24   19   25   18   2      0     180.000   0.071   0.612
   24   19   25   20   2      0     180.000 179.424   0.830
   24   19   28   18   2      0     180.000 172.887   0.908
   24   19   28   20   2      0     180.000   6.608   1.231
   25   24   26   19   3      0     180.000 108.553   0.022
   25   24   26   28   3      0     180.000  64.513   0.032
   25   24   29   19   3      0     180.000 128.518   0.032
   25   24   29   28   3      0     180.000  58.416   0.045
   25   24   30   19   3      0     180.000  12.164   0.032
   25   24   30   28   3      0     180.000 174.770   0.045
   26   25   27   24   3      0     180.000  75.188   0.066
   26   25   27   29   3      0     180.000 162.396   0.115
   26   25   27   30   3      0     180.000  46.341   0.115
   26   25   31   24   3      0     180.000 104.432   0.041
   26   25   31   29   3      0     180.000  17.984   0.072
   26   25   31   30   3      0     180.000 134.038   0.072
   31   26   32   25   2      0     180.000 175.364   0.620
   31   26   32   27   2      0     180.000   4.245   0.840
   31   26   35   25   2      0     180.000  11.580   0.920
   31   26   35   27   2      0     180.000 168.029   1.247
   32   31   33   26   3      0     180.000 115.819   0.022
   32   31   33   35   3      0     180.000  48.865   0.032
   32   31   36   26   3      0     180.000 121.173   0.032
   32   31   36   35   3      0     180.000  74.143   0.045
   32   31   37   26   3      0     180.000   3.743   0.032
   32   31   37   35   3      0     180.000 168.427   0.045
   33   32   34   31   3      0     180.000  53.702   0.066
   33   32   34   36   3      0     180.000 175.255   0.115
   33   32   34   37   3      0     180.000  64.703   0.115
   33   32   38   31   3      0     180.000 126.272   0.041
   33   32   38   36   3      0     180.000   4.720   0.072
   33   32   38   37   3      0     180.000 115.323   0.072
   38   33   39   32   2      0     180.000   1.928   0.343
   38   33   39   34   2      0     180.000 178.046   0.465
   38   33   40   32   2      0     180.000 175.899   0.489
   38   33   40   34   2      0     180.000   4.127   0.663
   39   38   41   33   2      0     180.000  65.638   1.385
   39   38   41   40   2      0     180.000 116.430   1.974
   39   38   42   33   2      0     180.000  51.731   1.385
   39   38   42   40   2      0     180.000 126.201   1.974
 out-of-plane atoms          phi0    phi      FC
    3    7    1    4          0.000  19.367   0.133
    5    6   10    4          0.000  -1.264  23.911
   10   14    5   11          0.000   3.079   0.126
   12   13   17   11          0.000  -0.702  23.916
   17   21   12   18          0.000  15.384   0.127
   19   20   24   18          0.000  -0.419  23.987
   24   28   19   25          0.000   5.626   0.137
   26   27   31   25          0.000   0.343  24.123
   31   35   26   32          0.000  13.824   0.116
   33   34   38   32          0.000   0.022  28.543
   38   40   33   39          0.000   1.711  -0.052
   39   41   42   38          0.000  56.877   0.552
          #tors  :   98
          #nmol  :   7
          #optfrag :   7

 GFN-FF setup done.

           ------------------------------------------------- 
          |                   G F N - F F                   |
          |          A general generic force-field          |
          |                  Version 1.0.3                  | 
           ------------------------------------------------- 
      * Solvation model:               ALPB
        Solvent                        water
        Parameter file                 internal GFN-FF/ALPB
        Dielectric constant                8.0200E+01
        Reference state                gsolv [1 M gas/solution]
        Free energy shift                  3.6494E-04 Eh       2.2900E-01 kcal/mol
        Temperature                        2.9815E+02 K
        Density                            1.0000E+00 kg/L
        Solvent mass                       1.8000E+01 g/mol
        Interaction kernel             P16
        Born radius scaling (c1)           1.5056E+00
        Born radii integrator          GBOBC
        Born offset                        0.0000E+00 a0       0.0000E+00 AA
        H-bond correction              true
        Ion screening                  false
        Surface tension                    1.0000E-05 Eh       1.5569E+01 dyn/cm
        Grid points                               230 per atom
          Number of HB bonds (bound hydrogen)     423
          Number of HB bonds (unbound hydrogen)   52
          Number of XB bonds                      0

 E+G (total)                   0 d,  0 h,  0 min,  0.001 sec
 distance/D3 list               ...        0 min,  0.000 sec (  0.315%)
 non bonded repulsion           ...        0 min,  0.000 sec (  1.978%)
 dCN                            ...        0 min,  0.000 sec (  5.309%)
 EEQ energy and q               ...        0 min,  0.000 sec (  4.388%)
 D3                             ...        0 min,  0.000 sec (  8.593%)
 EEQ gradient                   ...        0 min,  0.000 sec (  4.691%)
 bonds                          ...        0 min,  0.000 sec (  0.877%)
 bend and torsion               ...        0 min,  0.000 sec (  4.471%)
 bonded ATM                     ...        0 min,  0.000 sec (  1.501%)
 HB/XB (incl list setup)        ...        0 min,  0.000 sec (  8.459%)
 GBSA                           ...        0 min,  0.001 sec ( 62.079%)

         :::::::::::::::::::::::::::::::::::::::::::::::::::::
         ::                     SUMMARY                     ::
         :::::::::::::::::::::::::::::::::::::::::::::::::::::
         :: total energy              -7.488994102090 Eh    ::
         :: total w/o Gsolv           -7.438538612334 Eh    ::
         :: total w/o Gsasa/hb        -7.482614986710 Eh    ::
         :: gradient norm              0.169727133942 Eh/a0 ::
         ::.................................................::
         :: bond energy               -7.538184964517 Eh    ::
         :: angle energy               0.034472442732 Eh    ::
         :: torsion energy             0.021494716681 Eh    ::
         :: repulsion energy           0.457337968112 Eh    ::
         :: electrostat energy        -0.375254045971 Eh    ::
         :: dispersion energy         -0.028151483101 Eh    ::
         :: HB energy                 -0.000600538449 Eh    ::
         :: XB energy                  0.000000000000 Eh    ::
         :: bonded atm energy         -0.009652707821 Eh    ::
         :: external energy            0.000000000000 Eh    ::
         :: -> Gsolv                  -0.050455489755 Eh    ::
         ::    -> Gborn               -0.044076374376 Eh    ::
         ::    -> Gsasa                0.011673150844 Eh    ::
         ::    -> Ghb                 -0.018417205478 Eh    ::
         ::    -> Gshift               0.000364939255 Eh    ::
         :: add. restraining           0.000000000000 Eh    ::
         :: total charge              -0.000000000000 e     ::
         ::.................................................::
         :: atomisation energy         0.000000000000 Eh    ::
         :::::::::::::::::::::::::::::::::::::::::::::::::::::

      ----------------------------------------------------------- 
     |                   =====================                   |
     |                        A N C O P T                        |
     |                   =====================                   |
     |               Approximate Normal Coordinate               |
     |                Rational Function Optimizer                |
      ----------------------------------------------------------- 

          ...................................................
          :                      SETUP                      :
          :.................................................:
          :   optimization level         verytight          :
          :   max. optcycles                    10          :
          :   ANC micro-cycles                  10          :
          :   degrees of freedom               120          :
          :.................................................:
          :   RF solver                   davidson          :
          :   write xtbopt.log                true          :
          :   linear?                        false          :
          :   energy convergence         0.1000000E-06 Eh   :
          :   grad. convergence          0.2000000E-03 Eh/α :
          :   maxmium RF displ.          1.0000000          :
          :   Hlow (freq-cutoff)         0.1000000E-01      :
          :   Hmax (freq-cutoff)         5.0000000          :
          :   S6 in model hess.         20.0000000          :
          ...................................................

generating ANC from model Hessian ...
Using GFN-FF Lindh-Hessian
 Shifting diagonal of input Hessian by    0.0000000000000000     
 Lowest  eigenvalues of input Hessian
    0.000000    0.000000    0.000000    0.000000    0.000000    0.000000
    0.016290    0.018699    0.023494    0.026420    0.046187    0.050524
    0.059860    0.068291    0.074066    0.085910    0.091698    0.098689
 Highest eigenvalues
    3.656189    3.911157    4.012914    4.093716    4.237885    4.282907


........................................................................
.............................. CYCLE    1 ..............................
........................................................................
     iter. time                 ...        0 min,  0.001 sec
 * total energy  :    -7.4889941 Eh     change        0.0000000E+00 Eh
   gradient norm :     0.1697271 Eh/α   predicted     0.0000000E+00 (    NaN%)
   displ. norm   :     0.0895937 α      lambda       -0.1134965E-01
   maximum displ.:     0.0255405 α      in ANC's #107, #48, #46, ...

........................................................................
.............................. CYCLE    2 ..............................
........................................................................
     iter. time                 ...        0 min,  0.001 sec
 * total energy  :    -7.4965148 Eh     change       -0.7520652E-02 Eh
   gradient norm :     0.0616081 Eh/α   predicted    -0.5724674E-02 ( -23.88%)
   displ. norm   :     0.0547246 α      lambda       -0.2530634E-02
   maximum displ.:     0.0171544 α      in ANC's #36, #71, #107, ...

........................................................................
.............................. CYCLE    3 ..............................
........................................................................
     iter. time                 ...        0 min,  0.001 sec
 * total energy  :    -7.4979315 Eh     change       -0.1416780E-02 Eh
   gradient norm :     0.0167553 Eh/α   predicted    -0.1269173E-02 ( -10.42%)
   displ. norm   :     0.0230118 α      lambda       -0.2200335E-03
   maximum displ.:     0.0083286 α      in ANC's #37, #22, #13, ...

........................................................................
.............................. CYCLE    4 ..............................
........................................................................
     iter. time                 ...        0 min,  0.001 sec
 * total energy  :    -7.4980901 Eh     change       -0.1585540E-03 Eh
   gradient norm :     0.0089156 Eh/α   predicted    -0.1144572E-03 ( -27.81%)
   displ. norm   :     0.0191078 α      lambda       -0.9235732E-04
   maximum displ.:     0.0086881 α      in ANC's #37, #22, #13, ...

........................................................................
.............................. CYCLE    5 ..............................
........................................................................
     iter. time                 ...        0 min,  0.001 sec
 * total energy  :    -7.4981446 Eh     change       -0.5455382E-04 Eh
   gradient norm :     0.0030720 Eh/α   predicted    -0.4621290E-04 ( -15.29%)
   displ. norm   :     0.0078560 α      lambda       -0.1393888E-04
   maximum displ.:     0.0037389 α      in ANC's #37, #22, #3, ...

........................................................................
.............................. CYCLE    6 ..............................
........................................................................
     iter. time                 ...        0 min,  0.001 sec
 * total energy  :    -7.4981551 Eh     change       -0.1043319E-04 Eh
   gradient norm :     0.0020845 Eh/α   predicted    -0.7172453E-05 ( -31.25%)
   displ. norm   :     0.0090217 α      lambda       -0.1003950E-04
   maximum displ.:     0.0036580 α      in ANC's #37, #3, #2, ...

........................................................................
.............................. CYCLE    7 ..............................
........................................................................
     iter. time                 ...        0 min,  0.001 sec
 * total energy  :    -7.4981613 Eh     change       -0.6256457E-05 Eh
   gradient norm :     0.0015618 Eh/α   predicted    -0.5030241E-05 ( -19.60%)
   displ. norm   :     0.0067280 α      lambda       -0.1563604E-05
   maximum displ.:     0.0029369 α      in ANC's #3, #2, #4, ...

........................................................................
.............................. CYCLE    8 ..............................
........................................................................
     iter. time                 ...        0 min,  0.001 sec
 * total energy  :    -7.4981631 Eh     change       -0.1814526E-05 Eh
   gradient norm :     0.0008547 Eh/α   predicted    -0.1136271E-05 ( -37.38%)
   displ. norm   :     0.0064083 α      lambda        0.1879533E-05
   maximum displ.:     0.0027318 α      in ANC's #3, #2, #13, ...

........................................................................
.............................. CYCLE    9 ..............................
........................................................................
     iter. time                 ...        0 min,  0.001 sec
 * total energy  :    -7.4981617 Eh     change        0.1405891E-05 Eh
   gradient norm :     0.0014873 Eh/α   predicted     0.9377940E-06 ( -33.30%)
   displ. norm   :     0.0050619 α      lambda       -0.2488020E-05
   maximum displ.:     0.0017322 α      in ANC's #37, #36, #13, ...

........................................................................
.............................. CYCLE   10 ..............................
........................................................................
     iter. time                 ...        0 min,  0.001 sec
 * total energy  :    -7.4981638 Eh     change       -0.2068240E-05 Eh
   gradient norm :     0.0003891 Eh/α   predicted    -0.1257735E-05 ( -39.19%)
   displ. norm   :     0.0026939 α      lambda       -0.2091223E-06
   maximum displ.:     0.0016693 α      in ANC's #3, #2, #4, ...

   *** FAILED TO CONVERGE GEOMETRY OPTIMIZATION IN 10 ITERATIONS ***


 ANCopt (total)                0 d,  0 h,  0 min,  0.010 sec
 optimizer setup                ...        0 min,  0.000 sec (  0.839%)
 model hessian                  ...        0 min,  0.000 sec (  3.246%)
 ANC generation                 ...        0 min,  0.001 sec (  9.121%)
 coordinate transformation      ...        0 min,  0.000 sec (  0.427%)
 single point calculation       ...        0 min,  0.007 sec ( 75.782%)
 optimization log               ...        0 min,  0.001 sec (  5.322%)
 hessian update                 ...        0 min,  0.000 sec (  0.695%)
 rational function              ...        0 min,  0.000 sec (  2.796%)

================
 final structure:
================
ATOM      1  C   GLY A  11      -1.809 -11.392  -0.646  1.00  0.00           C  
ATOM      2  O   GLY A  11      -2.436 -12.055  -1.432  1.00  0.00           O  
ATOM      3  N   GLY A  12      -0.742 -10.622  -0.993  1.00  0.00           N  
ATOM      4  CA  GLY A  12      -0.375 -10.469  -2.385  1.00  0.00           C  
ATOM      5  C   GLY A  12      -0.734  -9.098  -2.893  1.00  0.00           C  
ATOM      6  O   GLY A  12      -1.761  -8.591  -2.490  1.00  0.00           O  
ATOM      7  H   GLY A  12      -0.392  -9.881  -0.380  1.00  0.00           H  
ATOM      8  HA2 GLY A  12       0.694 -10.673  -2.491  1.00  0.00           H  
ATOM      9  HA3 GLY A  12      -0.924 -11.225  -2.956  1.00  0.00           H  
ATOM     10  N   GLY A  13       0.057  -8.430  -3.810  1.00  0.00           N  
ATOM     11  CA  GLY A  13       1.319  -8.900  -4.373  1.00  0.00           C  
ATOM     12  C   GLY A  13       1.505  -8.435  -5.792  1.00  0.00           C  
ATOM     13  O   GLY A  13       0.539  -8.346  -6.519  1.00  0.00           O  
ATOM     14  H   GLY A  13      -0.275  -7.554  -4.206  1.00  0.00           H  
ATOM     15  HA2 GLY A  13       2.140  -8.555  -3.740  1.00  0.00           H  
ATOM     16  HA3 GLY A  13       1.330  -9.994  -4.370  1.00  0.00           H  
ATOM     17  N   GLY A  14       2.780  -8.154  -6.241  1.00  0.00           N  
ATOM     18  CA  GLY A  14       3.002  -7.599  -7.563  1.00  0.00           C  
ATOM     19  C   GLY A  14       3.187  -6.105  -7.502  1.00  0.00           C  
ATOM     20  O   GLY A  14       2.315  -5.464  -6.952  1.00  0.00           O  
ATOM     21  H   GLY A  14       3.561  -8.058  -5.590  1.00  0.00           H  
ATOM     22  HA2 GLY A  14       3.840  -8.108  -8.044  1.00  0.00           H  
ATOM     23  HA3 GLY A  14       2.107  -7.818  -8.158  1.00  0.00           H  
ATOM     24  N   GLY A  15       4.279  -5.433  -8.032  1.00  0.00           N  
ATOM     25  CA  GLY A  15       5.425  -5.996  -8.750  1.00  0.00           C  
ATOM     26  C   GLY A  15       5.390  -5.661 -10.216  1.00  0.00           C  
ATOM     27  O   GLY A  15       4.618  -6.257 -10.936  1.00  0.00           O  
ATOM     28  H   GLY A  15       4.257  -4.417  -8.030  1.00  0.00           H  
ATOM     29  HA2 GLY A  15       6.349  -5.624  -8.295  1.00  0.00           H  
ATOM     30  HA3 GLY A  15       5.446  -7.082  -8.632  1.00  0.00           H  
ATOM     31  N   GLY A  16       6.237  -4.686 -10.697  1.00  0.00           N  
ATOM     32  CA  GLY A  16       6.176  -4.245 -12.083  1.00  0.00           C  
ATOM     33  C   GLY A  16       5.752  -2.796 -12.176  1.00  0.00           C  
ATOM     34  O   GLY A  16       4.732  -2.478 -11.622  1.00  0.00           O  
ATOM     35  H   GLY A  16       6.751  -4.070 -10.066  1.00  0.00           H  
ATOM     36  HA2 GLY A  16       7.147  -4.420 -12.557  1.00  0.00           H  
ATOM     37  HA3 GLY A  16       5.440  -4.873 -12.594  1.00  0.00           H  
ATOM     38  N   GLY A  17       6.533  -1.857 -12.874  1.00  0.00           N  
ATOM     39  CA  GLY A  17       7.728  -2.012 -13.565  1.00  0.00           C  
ATOM     40  H   GLY A  17       6.117  -0.911 -12.953  1.00  0.00           H  
ATOM     41  HA2 GLY A  17       8.536  -2.267 -12.862  1.00  0.00           H  
ATOM     42  HA3 GLY A  17       7.681  -2.865 -14.250  1.00  0.00           H  
END

 Bond Distances (Angstroems)
 ---------------------------
C1-O2=1.2046         C1-N3=1.3607         O2-C1=1.2046         N3-C1=1.3607         N3-C4=1.4475         N3-H7=1.0231         
C4-N3=1.4475         C4-C5=1.5061         C4-H8=1.0933         C4-H9=1.0950         C5-C4=1.5061         C5-O6=1.2138         
C5-N10=1.3831        O6-C5=1.2138         H7-N3=1.0231         H8-C4=1.0933         H9-C4=1.0950         N10-C5=1.3831        
N10-C11=1.4598       N10-H14=1.0167       C11-N10=1.4598       C11-C12=1.5049       C11-H15=1.0918       C11-H16=1.0945       
C12-C11=1.5049       C12-O13=1.2124       C12-N17=1.3805       O13-C12=1.2124       H14-N10=1.0167       H15-C11=1.0918       
H16-C11=1.0945       N17-C12=1.3805       N17-C18=1.4516       N17-H21=1.0206       C18-N17=1.4516       C18-C19=1.5063       
C18-H22=1.0920       C18-H23=1.0960       C19-C18=1.5063       C19-O20=1.2143       C19-N24=1.3872       O20-C19=1.2143       
H21-N17=1.0206       H22-C18=1.0920       H23-C18=1.0960       N24-C19=1.3872       N24-C25=1.4650       N24-H28=1.0167       
C25-N24=1.4650       C25-C26=1.5042       C25-H29=1.0942       C25-H30=1.0922       C26-C25=1.5042       C26-O27=1.2122       
C26-N31=1.3787       O27-C26=1.2122       H28-N24=1.0167       H29-C25=1.0942       H30-C25=1.0922       N31-C26=1.3787       
N31-C32=1.4556       N31-H35=1.0206       C32-N31=1.4556       C32-C33=1.5122       C32-H36=1.0944       C32-H37=1.0941       
C33-C32=1.5122       C33-O34=1.2037       C33-N38=1.4069       O34-C33=1.2037       H35-N31=1.0206       H36-C32=1.0944       
H37-C32=1.0941       N38-C33=1.4069       N38-C39=1.3894       N38-H40=1.0357       C39-N38=1.3894       C39-H41=1.1012       
C39-H42=1.0951       H40-N38=1.0357       H41-C39=1.1012       H42-C39=1.0951       
 C  H  Rav=1.0945 sigma=0.0024  Rmin=1.0918  Rmax=1.1012    12
 C  C  Rav=1.5068 sigma=0.0029  Rmin=1.5042  Rmax=1.5122     5
 N  H  Rav=1.0222 sigma=0.0064  Rmin=1.0167  Rmax=1.0357     6
 N  C  Rav=1.4138 sigma=0.0371  Rmin=1.3607  Rmax=1.4650    12
 O  C  Rav=1.2102 sigma=0.0043  Rmin=1.2037  Rmax=1.2143     6

 selected bond angles (degree)
 --------------------
N3-C1-O2=123.62                C4-N3-C1=120.25                H7-N3-C1=121.66                H7-N3-C4=114.41                
C5-C4-N3=111.10                H8-C4-N3=108.76                H8-C4-C5=111.75                H9-C4-N3=107.57                
H9-C4-C5=109.42                H9-C4-H8=108.09                O6-C5-C4=118.02                N10-C5-C4=121.80               
N10-C5-O6=120.18               C11-N10-C5=126.51              H14-N10-C5=119.11              H14-N10-C11=114.21             

 selected dihedral angles (degree)
 ---------------------------------
C4-N3-C1-O2=  5.61            H7-N3-C1-O2=162.80            C5-C4-N3-C1=106.80            C5-C4-N3-H7=308.05            
H8-C4-N3-C1=230.21            H8-C4-N3-H7= 71.46            H9-C4-N3-C1=347.06            H9-C4-N3-H7=188.30            
O6-C5-C4-N3=323.18            O6-C5-C4-H8=201.50            O6-C5-C4-H9= 81.82            N10-C5-C4-N3=144.27           
N10-C5-C4-H8= 22.59           N10-C5-C4-H9=262.91           C11-N10-C5-C4=358.15          C11-N10-C5-O6=179.26          
H14-N10-C5-C4=173.09          H14-N10-C5-O6=354.20          
           -------------------------------------------------
          |                Final Singlepoint                |
           -------------------------------------------------
         :::::::::::::::::::::::::::::::::::::::::::::::::::::
         ::                     SUMMARY                     ::
         :::::::::::::::::::::::::::::::::::::::::::::::::::::
         :: total energy              -7.498164124659 Eh    ::
         :: total w/o Gsolv           -7.447987594777 Eh    ::
         :: total w/o Gsasa/hb        -7.491986915198 Eh    ::
         :: gradient norm              0.000274016266 Eh/a0 ::
         ::.................................................::
         :: bond energy               -7.557537538036 Eh    ::
         :: angle energy               0.033989497699 Eh    ::
         :: torsion energy             0.024666935122 Eh    ::
         :: repulsion energy           0.460920685490 Eh    ::
         :: electrostat energy        -0.375593209937 Eh    ::
         :: dispersion energy         -0.028159938752 Eh    ::
         :: HB energy                 -0.000590374288 Eh    ::
         :: XB energy                  0.000000000000 Eh    ::
         :: bonded atm energy         -0.009452946007 Eh    ::
         :: external energy            0.000000000000 Eh    ::
         :: -> Gsolv                  -0.050176529882 Eh    ::
         ::    -> Gborn               -0.043999320421 Eh    ::
         ::    -> Gsasa                0.011695693894 Eh    ::
         ::    -> Ghb                 -0.018237842610 Eh    ::
         ::    -> Gshift               0.000364939255 Eh    ::
         :: add. restraining           0.003769293934 Eh    ::
         :: total charge               0.000000000000 e     ::
         ::.................................................::
         :: atomisation energy         0.000000000000 Eh    ::
         :::::::::::::::::::::::::::::::::::::::::::::::::::::

           -------------------------------------------------
          |                Property Printout                |
           -------------------------------------------------
           -------------------------------------------------
          |                Geometry Summary                 |
           -------------------------------------------------

      molecular mass/u    :      342.3084131
   center of mass at/Å    :        2.6462243      -6.8725751      -7.1108562
  moments of inertia/u·Å² :        0.4318119E+03   0.1108712E+05   0.1123203E+05
rotational constants/cm⁻¹ :        0.3903930E-01   0.1520470E-02   0.1500854E-02

 * 35 selected distances

     #   Z          #   Z                                           value/Å
     1   6  C       3   7  N                                      1.3606688
     3   7  N       4   6  C                                      1.4474674
     5   6  C       6   8  O                                      1.2137828
     3   7  N       7   1  H                                      1.0231272
     4   6  C       8   1  H                                      1.0933066
     4   6  C       9   1  H                                      1.0949903
     5   6  C      10   7  N                                      1.3831344
    10   7  N      11   6  C                                      1.4597880
    12   6  C      13   8  O                                      1.2123700
    10   7  N      14   1  H                                      1.0167066
    11   6  C      15   1  H                                      1.0917550
    11   6  C      16   1  H                                      1.0945312
    12   6  C      17   7  N                                      1.3804641
    17   7  N      18   6  C                                      1.4515739
    19   6  C      20   8  O                                      1.2142885
    17   7  N      21   1  H                                      1.0206046
    18   6  C      22   1  H                                      1.0919643
    18   6  C      23   1  H                                      1.0960186
    19   6  C      24   7  N                                      1.3872095
    24   7  N      25   6  C                                      1.4650273 (max)
    26   6  C      27   8  O                                      1.2121974
    24   7  N      28   1  H                                      1.0166571 (min)
    25   6  C      29   1  H                                      1.0941830
    25   6  C      30   1  H                                      1.0921711
    26   6  C      31   7  N                                      1.3787431
    31   7  N      32   6  C                                      1.4556189
    33   6  C      34   8  O                                      1.2037266
    31   7  N      35   1  H                                      1.0205597
    32   6  C      36   1  H                                      1.0944440
    32   6  C      37   1  H                                      1.0940927
    33   6  C      38   7  N                                      1.4068976
    38   7  N      39   6  C                                      1.3894201
    38   7  N      40   1  H                                      1.0356801
    39   6  C      41   1  H                                      1.1011982
    39   6  C      42   1  H                                      1.0950595

 * 4 distinct bonds (by element types)

   Z      Z             #   av. dist./Å        max./Å        min./Å
   1 H    6 C          12     1.0944762     1.1011982     1.0917550
   1 H    7 N           6     1.0222226     1.0356801     1.0166571
   6 C    7 N          12     1.4138344     1.4650273     1.3606688
   6 C    8 O           5     1.2112730     1.2142885     1.2037266


optimized geometry written to: xtbopt.pdb


           -------------------------------------------------
          | TOTAL ENERGY               -7.498164124659 Eh   |
          | GRADIENT NORM               0.000274016266 Eh/α |
           -------------------------------------------------
########################################################################
[WARNING] Runtime exception occurred
-1- gfnff_setup: Could not read topology file.
########################################################################

------------------------------------------------------------------------
 unit  open   action     filename
   10 false : read       xtb_settings.inp
   10 false : read       substructure_20.pdb
   10 false : read       xtb_settings.inp
   10 false : written    gfnff_topo
   10 false : written    gfnff_adjacency
   10 false : written    gfnff_charges
   10 false : deleted    .xtboptok
   10 false : replaced   xtbopt.log
   11 false : created    .xtboptok
   11 false : replaced   gfnff_charges
   10 false : replaced   xtbopt.pdb

------------------------------------------------------------------------
 * finished run on 2025/05/27 at 09:37:40.269     
------------------------------------------------------------------------
 total:
 * wall-time:     0 d,  0 h,  0 min,  0.015 sec
 *  cpu-time:     0 d,  0 h,  0 min,  0.015 sec
 * ratio c/w:     0.998 speedup
 SCF:
 * wall-time:     0 d,  0 h,  0 min,  0.001 sec
 *  cpu-time:     0 d,  0 h,  0 min,  0.001 sec
 * ratio c/w:     0.999 speedup
 ANC optimizer:
 * wall-time:     0 d,  0 h,  0 min,  0.011 sec
 *  cpu-time:     0 d,  0 h,  0 min,  0.011 sec
 * ratio c/w:     0.998 speedup

