42
 energy: -7.489888670839 gnorm: 0.167290910350 xtb: 6.6.1 (8d0f1dd)
 C          -1.72900000000000      -11.45300000000000       -0.60300000000000
 O          -2.12100000000000      -12.33400000000000       -1.33700000000000
 N          -0.79000000000000      -10.52800000000000       -1.00200000000000
 C          -0.37300000000000      -10.47700000000000       -2.38800000000000
 C          -0.80600000000000       -9.16900000000000       -3.01200000000000
 O          -1.89800000000000       -8.73100000000000       -2.71300000000000
 H          -0.63600000000000       -9.66900000000000       -0.47200000000000
 H           0.71100000000000      -10.59800000000000       -2.42600000000000
 H          -0.84100000000000      -11.30500000000000       -2.91000000000000
 N          -0.00700000000000       -8.49500000000000       -3.91700000000000
 C           1.32400000000000       -8.88700000000000       -4.36200000000000
 C           1.53900000000000       -8.52100000000000       -5.81400000000000
 O           0.62000000000000       -8.62200000000000       -6.59800000000000
 H          -0.38300000000000       -7.68200000000000       -4.39700000000000
 H           2.07300000000000       -8.44500000000000       -3.72900000000000
 H           1.41500000000000       -9.98700000000000       -4.29100000000000
 N           2.78700000000000       -8.09200000000000       -6.21500000000000
 C           3.00500000000000       -7.60700000000000       -7.56600000000000
 C           3.14700000000000       -6.10100000000000       -7.57900000000000
 O           2.22500000000000       -5.45800000000000       -7.11800000000000
 H           3.50500000000000       -7.83900000000000       -5.53600000000000
 H           3.86300000000000       -8.11000000000000       -8.00500000000000
 H           2.12400000000000       -7.87800000000000       -8.15400000000000
 N           4.25300000000000       -5.42800000000000       -8.07800000000000
 C           5.42800000000000       -5.98900000000000       -8.74400000000000
 C           5.41900000000000       -5.68200000000000      -10.22200000000000
 O           4.64300000000000       -6.27300000000000      -10.94200000000000
 H           4.19600000000000       -4.41600000000000       -8.15000000000000
 H           6.33100000000000       -5.60100000000000       -8.27900000000000
 H           5.45300000000000       -7.07700000000000       -8.61400000000000
 N           6.28800000000000       -4.72700000000000      -10.71200000000000
 C           6.17800000000000       -4.25200000000000      -12.08800000000000
 C           5.81800000000000       -2.78400000000000      -12.10400000000000
 O           4.86300000000000       -2.43600000000000      -11.44000000000000
 H           6.79400000000000       -4.10500000000000      -10.08000000000000
 H           7.12100000000000       -4.43900000000000      -12.60600000000000
 H           5.39500000000000       -4.82600000000000      -12.57200000000000
 N           6.51400000000000       -1.84100000000000      -12.84400000000000
 C           7.76000000000000       -2.02200000000000      -13.57400000000000
 H           6.22200000000000       -0.86200000000000      -12.79700000000000
 H           8.53900000000000       -2.34700000000000      -12.87300000000000
 H           7.62000000000000       -2.82700000000000      -14.31400000000000
42
 energy: -7.497171719982 gnorm: 0.061138864332 xtb: 6.6.1 (8d0f1dd)
 C          -1.72025742791004      -11.44993842219730       -0.60382462117001
 O          -2.11893190503865      -12.33052599019782       -1.32700950233067
 N          -0.79223304746065      -10.53007164555636       -1.00086792889801
 C          -0.37457874585111      -10.47228355620001       -2.38649288352342
 C          -0.80767781119345       -9.17059438973722       -3.01425658268181
 O          -1.89839517775590       -8.73076048368235       -2.71367297234294
 H          -0.64052059360065       -9.66818362857963       -0.47293256202105
 H           0.71035691100363      -10.59652675277808       -2.42538236627900
 H          -0.84152385970653      -11.30619959486362       -2.91163221995435
 N          -0.00868693974658       -8.49728209878607       -3.91993850106604
 C           1.32082616562400       -8.89426298405303       -4.36877692121930
 C           1.53842984526106       -8.52137070881536       -5.81456111079906
 O           0.62049986260954       -8.62354906939116       -6.59920146136831
 H          -0.38398414629227       -7.68269849704116       -4.39859598483035
 H           2.07331239793988       -8.44463835870776       -3.72851782660278
 H           1.41399191562324       -9.98663725888416       -4.29153663157455
 N           2.78671421411591       -8.09163492738275       -6.21430395140098
 C           3.00517581305159       -7.60328018857971       -7.56371134613281
 C           3.14747018644565       -6.10105044012363       -7.57795100495072
 O           2.22682482860749       -5.45821049887708       -7.11554810057620
 H           3.50407528420538       -7.83821555179949       -5.53434978779096
 H           3.86457902919385       -8.10872448097232       -8.00444587326479
 H           2.12385392331711       -7.87629760633581       -8.15364962555140
 N           4.25311625774757       -5.42890939286834       -8.07829310294677
 C           5.42647520629944       -5.99299014354546       -8.74736164517897
 C           5.41934964841759       -5.68354291100829      -10.22248772628920
 O           4.64316904381724       -6.27375600179992      -10.94253612424369
 H           4.19724648371857       -4.41650219869405       -8.14935708089904
 H           6.33195890204081       -5.60289885276621       -8.27914806577403
 H           5.45267290969152       -7.07803108671302       -8.61463556180822
 N           6.28913692746915       -4.72904634125998      -10.71189978769475
 C           6.17961204233364       -4.25008013595888      -12.08437610575317
 C           5.81656212786949       -2.78538518372280      -12.10292527155396
 O           4.86642959091951       -2.43615911954659      -11.43965578348194
 H           6.79586351451238       -4.10796535938720      -10.07998075609064
 H           7.12165312479913       -4.43996769482712      -12.60597741644784
 H           5.39430662589127       -4.82739661968487      -12.57296088639885
 N           6.53476993393488       -1.84578323539827      -12.84866960688785
 C           7.73741595200448       -2.01765292261957      -13.56628255359219
 H           6.22602587267899       -0.86910974749328      -12.79911526433413
 H           8.53122959982298       -2.34011007058576      -12.88175643104368
 H           7.62268551358888       -2.81377584857849      -14.30842106325157
42
 energy: -7.498614026288 gnorm: 0.016530893404 xtb: 6.6.1 (8d0f1dd)
 C          -1.71372890247146      -11.45162827986256       -0.60481451291593
 O          -2.11940452923979      -12.32887762241111       -1.32343995901081
 N          -0.79337556948751      -10.53156528280386       -0.99982517413856
 C          -0.37500338184048      -10.46847165922250       -2.38479858980286
 C          -0.80837962537167       -9.17150756672070       -3.01530809388854
 O          -1.89882870845442       -8.73097657492801       -2.71427475004457
 H          -0.64236732921917       -9.66727700652427       -0.47354014130622
 H           0.71043208782259      -10.59605989280009       -2.42506946162329
 H          -0.84064070443881      -11.30672971888596       -2.91142722509631
 N          -0.00935554767397       -8.49800736015598       -3.92105750552305
 C           1.31882856396706       -8.89924827347822       -4.37360593458225
 C           1.53842681235154       -8.52132334426536       -5.81467113104811
 O           0.62071243514564       -8.62453491432389       -6.59967359506733
 H          -0.38435549116296       -7.68268803111935       -4.39886281669932
 H           2.07214054654008       -8.44346922805527       -3.72866883746001
 H           1.41493176641952       -9.98659367618034       -4.29068982351269
 N           2.78680466321561       -8.09158948972911       -6.21424602756489
 C           3.00500828804452       -7.60074615611414       -7.56231353014550
 C           3.14776836344749       -6.10108965907424       -7.57699771105970
 O           2.22786703353326       -5.45844749352244       -7.11327713095524
 H           3.50405628981696       -7.83782328308915       -5.53405681307521
 H           3.86454868939345       -8.10848925387083       -8.00457231237117
 H           2.12362452952100       -7.87561419720450       -8.15339542626518
 N           4.25320746996503       -5.42900123641527       -8.07823942861410
 C           5.42506576087033       -5.99529538689414       -8.75007445841993
 C           5.41864894801801       -5.68341396446960      -10.22303310144674
 O           4.64227325670803       -6.27346486128046      -10.94302705563133
 H           4.19805369597893       -4.41639038948822       -8.14856900952148
 H           6.33170119049687       -5.60338467613200       -8.27958952878484
 H           5.45265271750963       -7.07837385624217       -8.61493072888653
 N           6.28855164960206       -4.72912951964238      -10.71241320524096
 C           6.17919843654026       -4.24624252333606      -12.08206731622457
 C           5.81197554386140       -2.78267012665676      -12.10074818688569
 O           4.86459988184118       -2.43491152152816      -11.43949084054530
 H           6.79582913801917       -4.10851002607028      -10.08035396989972
 H           7.11959414385358       -4.43995601630844      -12.60722079540452
 H           5.39305019535056       -4.82635346183306      -12.57329959135738
 N           6.55095178658400       -1.84809402504344      -12.84846128356190
 C           7.72867977499894       -2.01393509758873      -13.56408770986877
 H           6.21996915020997       -0.87214874690563      -12.80284579630439
 H           8.53127844250857       -2.34396128378407      -12.88714986036296
 H           7.63400853722500       -2.81400531603923      -14.30281162988211
42
 energy: -7.498787515682 gnorm: 0.009030020152 xtb: 6.6.1 (8d0f1dd)
 C          -1.71180897539472      -11.45397449243922       -0.60509908393619
 O          -2.12106147572769      -12.32847673712839       -1.32453539450329
 N          -0.79336868695693      -10.53155533928869       -0.99941364423740
 C          -0.37466953710824      -10.46751657403285       -2.38401144938563
 C          -0.80825774442060       -9.17162730567162       -3.01522884711410
 O          -1.89929765032893       -8.73170161105621       -2.71503920051667
 H          -0.64288142603286       -9.66657071593978       -0.47375885680345
 H           0.71068513211111      -10.59621519344584       -2.42504451219171
 H          -0.83964066090023      -11.30680308021381       -2.91068352868076
 N          -0.00906137404818       -8.49747669827785       -3.92047215078013
 C           1.31856803769487       -8.90008879111369       -4.37444665714856
 C           1.53867748612195       -8.52122220942183       -5.81451684968887
 O           0.62073012087664       -8.62456226970260       -6.59956529317228
 H          -0.38432074339155       -7.68260448618907       -4.39867001825678
 H           2.07155259186129       -8.44301736562156       -3.72878859920350
 H           1.41569888959368       -9.98667453836048       -4.29015191169787
 N           2.78702756690627       -8.09184461434302       -6.21453277039399
 C           3.00487228863314       -7.60036035123957       -7.56218539229493
 C           3.14785409207621       -6.10108847582106       -7.57674461903952
 O           2.22788887818981       -5.45854746877554       -7.11280067065000
 H           3.50451641046437       -7.83809869041424       -5.53456885993546
 H           3.86390830779119       -8.10890375444882       -8.00492904306591
 H           2.12370309601366       -7.87591958878506       -8.15346172931632
 N           4.25329149292808       -5.42864475507428       -8.07793781760835
 C           5.42465799578728       -5.99541294049478       -8.75056882505040
 C           5.41814630648950       -5.68279820358419      -10.22305730411777
 O           4.64170823337713       -6.27294284877318      -10.94306254797753
 H           4.19814654654970       -4.41607004061963       -8.14824717836017
 H           6.33132244623316       -5.60307368502434       -8.27967939838107
 H           5.45263822887893       -7.07818234438124       -8.61486628565950
 N           6.28792720095802       -4.72866658078419      -10.71263048409987
 C           6.17859873146731       -4.24442838131841      -12.08161571742161
 C           5.81023209049249       -2.77978091476891      -12.09922721602821
 O           4.86310789386295       -2.43412959930720      -11.43924691509234
 H           6.79540255788408       -4.10809442406000      -10.08044430678924
 H           7.11797888013742       -4.44001381682253      -12.60816262866065
 H           5.39248312608706       -4.82523720153941      -12.57306459497644
 N           6.55602163078374       -1.84816153109476      -12.84553331219916
 C           7.72946013775356       -2.01315479043434      -13.56481780079166
 H           6.21494499386494       -0.87324427842520      -12.80633914897599
 H           8.53301800219400       -2.34829056978325      -12.88859705956126
 H           7.63859888024636       -2.81682274197940      -14.30125237623545
42
 energy: -7.498848684992 gnorm: 0.003392851317 xtb: 6.6.1 (8d0f1dd)
 C          -1.71022683312652      -11.45622609514744       -0.60502072374499
 O          -2.12325995600536      -12.32775036266777       -1.32609461687706
 N          -0.79297446193180      -10.53126843886275       -0.99897254637396
 C          -0.37421736601181      -10.46717929072241       -2.38337737038306
 C          -0.80791327437639       -9.17151519965506       -3.01482069510988
 O          -1.89988942355637       -8.73269027628788       -2.71605500308135
 H          -0.64367376550911       -9.66573848285576       -0.47398439234029
 H           0.71090270998088      -10.59653778556744       -2.42513546349838
 H          -0.83879794995739      -11.30678509248203       -2.90998686127470
 N          -0.00837150528362       -8.49643335751568       -3.91920010005842
 C           1.31863101832216       -8.90010878040601       -4.37444964280168
 C           1.53890225219083       -8.52111510025702       -5.81429879470723
 O           0.62067771223050       -8.62430550595272       -6.59931417096503
 H          -0.38419512338648       -7.68251105793295       -4.39841131269320
 H           2.07139487115362       -8.44296404272662       -3.72884232983241
 H           1.41607553900459       -9.98672206202497       -4.28988524734548
 N           2.78721868069219       -8.09222978273986       -6.21493672934446
 C           3.00473101234251       -7.60045963701814       -7.56234782253688
 C           3.14784106135779       -6.10116176095410       -7.57688061596392
 O           2.22755590043016       -5.45869369582238       -7.11322454725515
 H           3.50506169191013       -7.83863970399387       -5.53530760307561
 H           3.86317939427202       -8.10952687597673       -8.00536682273962
 H           2.12392416647748       -7.87660783867280       -8.15374181800121
 N           4.25336964780297       -5.42827955167857       -8.07760381915023
 C           5.42448802302870       -5.99517997552205       -8.75056549700761
 C           5.41783122809006       -5.68230231442263      -10.22294390482698
 O           4.64139528352834       -6.27256769787425      -10.94299945424872
 H           4.19802193760169       -4.41579134853591       -8.14812354706355
 H           6.33104605780245       -5.60273309560759       -8.27964740897832
 H           5.45258723598589       -7.07795656576700       -8.61476432600502
 N           6.28746562970120       -4.72833758963172      -10.71274356374128
 C           6.17814582635160       -4.24340118703048      -12.08149610721114
 C           5.80964479070802       -2.77706635993294      -12.09788259447807
 O           4.86182967962394       -2.43399340974310      -11.43941410822189
 H           6.79507909512626       -4.10775922090729      -10.08045898614599
 H           7.11672707463899       -4.44019880276114      -12.60894549633734
 H           5.39219240018522       -4.82447255326255      -12.57280275764970
 N           6.55994574793624       -1.84771449880689      -12.84166284576697
 C           7.73096528942648       -2.01283213663256      -13.56531993932417
 H           6.21100981056046       -0.87455504770098      -12.81007107085118
 H           8.53438047490821       -2.35124445676654      -12.88915316879295
 H           7.64029841577327       -2.81844396117341      -14.30074617419489
42
 energy: -7.498860167981 gnorm: 0.002307497903 xtb: 6.6.1 (8d0f1dd)
 C          -1.70940162738316      -11.45691600193275       -0.60473451940432
 O          -2.12421836491536      -12.32716800849354       -1.32647942226381
 N          -0.79256125848879      -10.53114684615549       -0.99869357551667
 C          -0.37402338260356      -10.46726984386505       -2.38319860735677
 C          -0.80771449432051       -9.17139971707529       -3.01456584217649
 O          -1.90023530525478       -8.73327295062570       -2.71666626429893
 H          -0.64439226055243       -9.66524901524684       -0.47414878322048
 H           0.71096957590390      -10.59665679755764       -2.42516592873237
 H          -0.83862619172530      -11.30676155989552       -2.90981466199967
 N          -0.00790195557965       -8.49579309079038       -3.91838022249017
 C           1.31872310550715       -8.89991212486978       -4.37422171549696
 C           1.53892142486443       -8.52109107011549       -5.81421953799418
 O           0.62064482381401       -8.62416321445645       -6.59920525293157
 H          -0.38417706757890       -7.68255800047410       -4.39839759964143
 H           2.07157862124592       -8.44317286140837       -3.72883547342614
 H           1.41594938255999       -9.98673690831744       -4.28996870769348
 N           2.78722185629804       -8.09238018316775       -6.21510929746743
 C           3.00466770469487       -7.60061146457165       -7.56247743134767
 C           3.14778683344043       -6.10121612349376       -7.57716722756850
 O           2.22726457188445       -5.45872937788847       -7.11395808501552
 H           3.50521199391102       -7.83888103599120       -5.53561554121451
 H           3.86293948719103       -8.10976812313581       -8.00553584556749
 H           2.12406411236438       -7.87698011604303       -8.15395595343900
 N           4.25342612428651       -5.42819818691528       -8.07747043863545
 C           5.42451129086444       -5.99505711952185       -8.75042814676044
 C           5.41780941964630       -5.68224603862186      -10.22287697478894
 O           4.64138913887567       -6.27252539768141      -10.94296298620752
 H           4.19793784713594       -4.41574884811826       -8.14814030669564
 H           6.33104238562288       -5.60271878587048       -8.27962192440756
 H           5.45251675645520       -7.07793235423090       -8.61478220049604
 N           6.28739437229063       -4.72831024797393      -10.71273757615481
 C           6.17804325498169       -4.24338102676322      -12.08152169615274
 C           5.80995591180989       -2.77631871172931      -12.09745547475105
 O           4.86129182599410       -2.43439447777734      -11.43989281214747
 H           6.79505948786472       -4.10775878632551      -10.08043222661167
 H           7.11649930910576       -4.44021918024272      -12.60907895449169
 H           5.39216089973950       -4.82436215281152      -12.57273417942291
 N           6.56133043242087       -1.84718599700009      -12.83978998382442
 C           7.73145934844029       -2.01297545348056      -13.56525109842690
 H           6.21030572055510       -0.87505562505690      -12.81118590303622
 H           8.53462618363597       -2.35154106859751      -12.88908818941923
 H           7.63954870499737       -2.81823610570988      -14.30103343130572
42
 energy: -7.498866551254 gnorm: 0.001575958875 xtb: 6.6.1 (8d0f1dd)
 C          -1.70842563458007      -11.45742051843327       -0.60435574193237
 O          -2.12510371231494      -12.32645267545181       -1.32657698276227
 N          -0.79195696861434      -10.53119896646026       -0.99834724869710
 C          -0.37387305131628      -10.46742833994195       -2.38310157554353
 C          -0.80751190353588       -9.17126603765681       -3.01430051578698
 O          -1.90058432398270       -8.73387899109487       -2.71729101032060
 H          -0.64531541602665       -9.66474356357848       -0.47437351729393
 H           0.71102169323410      -10.59673642902069       -2.42516715725982
 H          -0.83864297875380      -11.30672135330349       -2.90976684139068
 N          -0.00733399188108       -8.49508935332670       -3.91744220681113
 C           1.31879852868542       -8.89976744583344       -4.37401740432194
 C           1.53886824444033       -8.52106486788257       -5.81416708194452
 O           0.62060562169006       -8.62404341309191       -6.59912049688816
 H          -0.38418096485066       -7.68266489195079       -4.39843854029030
 H           2.07187749870569       -8.44350368422130       -3.72882464944907
 H           1.41569054246306       -9.98678066589496       -4.29015528621230
 N           2.78715276137177       -8.09242829093938       -6.21521976234262
 C           3.00459800450614       -7.60071565215733       -7.56257069913794
 C           3.14767831901197       -6.10125142723780       -7.57759630808913
 O           2.22685290191170       -5.45868946795522       -7.11509676047923
 H           3.50525224387280       -7.83901192890139       -5.53581644452444
 H           3.86280693393937       -8.10988107493478       -8.00564225577114
 H           2.12417530535079       -7.87728227042439       -8.15416039447891
 N           4.25350115249001       -5.42818852331860       -8.07735891388839
 C           5.42456357009461       -5.99499228968416       -8.75028970708675
 C           5.41784948151611       -5.68228721998162      -10.22282040077335
 O           4.64145268188967       -6.27255904976281      -10.94292468653378
 H           4.19788639705181       -4.41576240696749       -8.14816179094472
 H           6.33110528320952       -5.60280037518837       -8.27959948245554
 H           5.45243672157185       -7.07796591972593       -8.61483031638333
 N           6.28741284508927       -4.72832477737683      -10.71268610563995
 C           6.17802944051813       -4.24354449110720      -12.08152855431653
 C           5.81050213705190       -2.77603434471073      -12.09714491341514
 O           4.86067671366257       -2.43505887561232      -11.44071601635661
 H           6.79511452495935       -4.10782652916729      -10.08037385018286
 H           7.11652593047829       -4.44016802402915      -12.60902203735337
 H           5.39216501907759       -4.82435585017034      -12.57269671449854
 N           6.56252182462569       -1.84643377744999      -12.83805431305378
 C           7.73168852686025       -2.01330615569242      -13.56512534212580
 H           6.21018039147942       -0.87527325480165      -12.81160225161141
 H           8.53466201378670       -2.35141348123622      -12.88900676674686
 H           7.63827569126048       -2.81768334432327      -14.30150895490513
42
 energy: -7.498868148022 gnorm: 0.000773229280 xtb: 6.6.1 (8d0f1dd)
 C          -1.70787456594719      -11.45760067316228       -0.60415141294019
 O          -2.12551643070279      -12.32604604139241       -1.32649220040785
 N          -0.79146538820080      -10.53143077269168       -0.99811581879697
 C          -0.37383474340482      -10.46751861109672       -2.38311028943430
 C          -0.80741514068417       -9.17119536529534       -3.01416853427511
 O          -1.90073613793529       -8.73417037174411       -2.71756727450147
 H          -0.64588597639928       -9.66450610515262       -0.47453769670445
 H           0.71105267075209      -10.59673264385991       -2.42512019622649
 H          -0.83876946244053      -11.30668669520586       -2.90980914695125
 N          -0.00696273537008       -8.49469286476298       -3.91687677953537
 C           1.31881245911600       -8.89980310359437       -4.37399409983847
 C           1.53879813401677       -8.52103357002702       -5.81415417430903
 O           0.62058546928740       -8.62401735637531       -6.59909259691649
 H          -0.38419397265624       -7.68276789184155       -4.39848779782061
 H           2.07205720194567       -8.44372274575880       -3.72882560965537
 H           1.41554055865344       -9.98684400652725       -4.29027661994636
 N           2.78706850147645       -8.09229621162493       -6.21517971412362
 C           3.00456402945632       -7.60070313838503       -7.56256124017834
 C           3.14754291158412       -6.10124108967007       -7.57795951749114
 O           2.22644956363117       -5.45858290275682       -7.11614883648873
 H           3.50518620997441       -7.83890762606410       -5.53577863724144
 H           3.86285424135423       -8.10980356722434       -8.00560013522528
 H           2.12418697798908       -7.87737232459478       -8.15419595806432
 N           4.25355826603290       -5.42824108927902       -8.07731774460354
 C           5.42459735081651       -5.99502702365980       -8.75025377445241
 C           5.41789261746796       -5.68236068801073      -10.22281068189458
 O           4.64150507430281       -6.27261467195157      -10.94290462405890
 H           4.19791133629466       -4.41581060126615       -8.14815333203827
 H           6.33116929359273       -5.60290347530044       -8.27959482820003
 H           5.45241151399354       -7.07802559992874       -8.61485968005686
 N           6.28748609527975       -4.72834811933708      -10.71262691124892
 C           6.17810194670844       -4.24369272196613      -12.08150043156734
 C           5.81090606644445       -2.77630129607952      -12.09705787864183
 O           4.86031106315248       -2.43550869769975      -11.44135779740038
 H           6.79518748776807       -4.10789199538070      -10.08031950741734
 H           7.11670459517737       -4.44011301699462      -12.60887168243639
 H           5.39217247224356       -4.82437661538258      -12.57268239858058
 N           6.56287904250234       -1.84587624160681      -12.83736225424629
 C           7.73158615208022       -2.01359986955842      -13.56517211452378
 H           6.21053692347489       -0.87501085310735      -12.81106747225992
 H           8.53455418163050       -2.35124986479211      -12.88905492663348
 H           7.63748414554087       -2.81737187989021      -14.30182767266645
42
 energy: -7.498868549656 gnorm: 0.000271306388 xtb: 6.6.1 (8d0f1dd)
 C          -1.70789350526636      -11.45762144520626       -0.60420248760835
 O          -2.12554172021764      -12.32605925710361       -1.32650315778860
 N          -0.79136839898424      -10.53156802693794       -0.99808452417152
 C          -0.37385466900282      -10.46747409599253       -2.38311198105528
 C          -0.80741945023580       -9.17120773982018       -3.01417240187248
 O          -1.90069171112745       -8.73412835756679       -2.71749344119446
 H          -0.64586267442029       -9.66455194827996       -0.47455063304883
 H           0.71106541027592      -10.59672354014871       -2.42509307648770
 H          -0.83878108696024      -11.30668834699588       -2.90980992959110
 N          -0.00691942478165       -8.49468119854311       -3.91683376512394
 C           1.31879112097672       -8.89992296212840       -4.37408765600108
 C           1.53879943354338       -8.52100508493127       -5.81414126816067
 O           0.62058695772600       -8.62402764904275       -6.59908207911304
 H          -0.38418217957972       -7.68277783968447       -4.39847015206806
 H           2.07203391363826       -8.44371925679630       -3.72882889770405
 H           1.41559222515502       -9.98686942231370       -4.29024376074802
 N           2.78705339846898       -8.09214865759040       -6.21509604533354
 C           3.00456821822333       -7.60065611901173       -7.56251880416371
 C           3.14745225438171       -6.10122237731521       -7.57809699574878
 O           2.22622431256576       -5.45853330059671       -7.11660145105400
 H           3.50515770243459       -7.83875972020009       -5.53567726646043
 H           3.86292193456718       -8.10974348496477       -8.00550908975316
 H           2.12415503316865       -7.87738100688881       -8.15411239174407
 N           4.25357248918830       -5.42826443399405       -8.07731630271474
 C           5.42458400196729       -5.99508307479524       -8.75030485160354
 C           5.41788061637175       -5.68236142283856      -10.22282106905711
 O           4.64147732382100       -6.27260556860585      -10.94290175790941
 H           4.19795902018043       -4.41582316120371       -8.14811681307856
 H           6.33117105357342       -5.60292653549511       -8.27960149427888
 H           5.45243396668157       -7.07804449400131       -8.61484815360001
 N           6.28750404447354       -4.72835553978754      -10.71261282133153
 C           6.17814013301037       -4.24364533849523      -12.08146100692819
 C           5.81088808705548       -2.77646075328069      -12.09706414069094
 O           4.86032851300065       -2.43546235572202      -11.44136706237649
 H           6.79520335997751       -4.10789935419835      -10.08030979963208
 H           7.11671566060558       -4.44013651004756      -12.60886839561528
 H           5.39215379940821       -4.82434920378905      -12.57267076720972
 N           6.56279788179636       -1.84586840785669      -12.83751710439499
 C           7.73140681990815       -2.01356839366057      -13.56526873834945
 H           6.21069611132565       -0.87481904522230      -12.81069261546059