      -----------------------------------------------------------      
     |                   =====================                   |     
     |                           x T B                           |     
     |                   =====================                   |     
     |                         S. Grimme                         |     
     |          Mulliken Center for Theoretical Chemistry        |     
     |                    University of Bonn                     |     
      -----------------------------------------------------------      

   * xtb version 6.6.1 (8d0f1dd) compiled by 'conda@1efc2f54142f' on 2023-08-01

   xtb is free software: you can redistribute it and/or modify it under
   the terms of the GNU Lesser General Public License as published by
   the Free Software Foundation, either version 3 of the License, or
   (at your option) any later version.
   
   xtb is distributed in the hope that it will be useful,
   but WITHOUT ANY WARRANTY; without even the implied warranty of
   MERCHANTABILITY or FITNESS FOR A PARTICULAR PURPOSE.  See the
   GNU Lesser General Public License for more details.
   
   Cite this work as:
   * C. Bannwarth, E. Caldeweyher, S. Ehlert, A. Hansen, P. Pracht,
     J. Seibert, S. Spicher, S. Grimme, WIREs Comput. Mol. Sci., 2020, 11,
     e01493. DOI: 10.1002/wcms.1493
   
   for GFN2-xTB:
   * C. Bannwarth, S. Ehlert and S. Grimme., J. Chem. Theory Comput., 2019,
     15, 1652-1671. DOI: 10.1021/acs.jctc.8b01176
   for GFN1-xTB:
   * S. Grimme, C. Bannwarth, P. Shushkov, J. Chem. Theory Comput., 2017,
     13, 1989-2009. DOI: 10.1021/acs.jctc.7b00118
   for GFN0-xTB:
   * P. Pracht, E. Caldeweyher, S. Ehlert, S. Grimme, ChemRxiv, 2019, preprint.
     DOI: 10.26434/chemrxiv.8326202.v1
   for GFN-FF:
   * S. Spicher and S. Grimme, Angew. Chem. Int. Ed., 2020, 59, 15665-15673.
     DOI: 10.1002/anie.202004239
   
   for ALPB and GBSA implicit solvation:
   * S. Ehlert, M. Stahn, S. Spicher, S. Grimme, J. Chem. Theory Comput.,
     2021, 17, 4250-4261. DOI: 10.1021/acs.jctc.1c00471
   
   for DFT-D4:
   * E. Caldeweyher, C. Bannwarth and S. Grimme, J. Chem. Phys., 2017,
     147, 034112. DOI: 10.1063/1.4993215
   * E. Caldeweyher, S. Ehlert, A. Hansen, H. Neugebauer, S. Spicher,
     C. Bannwarth and S. Grimme, J. Chem. Phys., 2019, 150, 154122.
     DOI: 10.1063/1.5090222
   * E. Caldeweyher, J.-M. Mewes, S. Ehlert and S. Grimme, Phys. Chem. Chem. Phys.
     2020, 22, 8499-8512. DOI: 10.1039/D0CP00502A
   
   for sTDA-xTB:
   * S. Grimme and C. Bannwarth, J. Chem. Phys., 2016, 145, 054103.
     DOI: 10.1063/1.4959605
   
   in the mass-spec context:
   * V. Asgeirsson, C. Bauer and S. Grimme, Chem. Sci., 2017, 8, 4879.
     DOI: 10.1039/c7sc00601b
   * J. Koopman and S. Grimme, ACS Omega 2019, 4, 12, 15120-15133.
     DOI: 10.1021/acsomega.9b02011
   
   for metadynamics refer to:
   * S. Grimme, J. Chem. Theory Comput., 2019, 155, 2847-2862
     DOI: 10.1021/acs.jctc.9b00143
   
   for SPH calculations refer to:
   * S. Spicher and S. Grimme, J. Chem. Theory Comput., 2021, 17, 1701-1714
     DOI: 10.1021/acs.jctc.0c01306
   
   with help from (in alphabetical order)
   P. Atkinson, C. Bannwarth, F. Bohle, G. Brandenburg, E. Caldeweyher
   M. Checinski, S. Dohm, S. Ehlert, S. Ehrlich, I. Gerasimov, C. Hölzer
   A. Katbashev, J. Koopman, C. Lavigne, S. Lehtola, F. März, M. Müller,
   F. Musil, H. Neugebauer, J. Pisarek, C. Plett, P. Pracht, F. Pultar,
   J. Seibert, P. Shushkov, S. Spicher, M. Stahn, M. Steiner, T. Strunk,
   J. Stückrath, T. Rose, and J. Unsleber
   
 * started run on 2025/05/27 at 09:37:38.632     

           -------------------------------------------------
          |                Calculation Setup                |
           -------------------------------------------------

          program call               : xtb substructure_17.pdb --gfnff --input xtb_settings.inp --opt vtight --alpb water --verbose
          coordinate file            : substructure_17.pdb
          xtbhome directory          : /home/dargen3
          path for xtb               : /home/dargen3
          xcontrol input file        : xtb_settings.inp
          omp threads                :                     1

$$$$$$$$$$$$$$$$$$$$$$$$$$$$$$$$$$$$$$$$$$$$$$$$$$$$$$$$$$$$$$$$$$$$$$$$
 CONSTRAINTS & SCANS: DEBUG SECTION
$$$$$$$$$$$$$$$$$$$$$$$$$$$$$$$$$$$$$$$$$$$$$$$$$$$$$$$$$$$$$$$$$$$$$$$$
   ID    Z sym.   atoms
    1    7  N     1, 8, 10, 20, 27, 29, 37, 49, 58
    2    6  C     2-4, 6, 7, 9, 21-23, 25, 26, 28, 38-40, 42, 50-52, 59
    3    8  O     5, 24, 41, 43, 44, 53
    4    1  H     11-19, 30-36, 45-48, 54-57, 60, 61
> constrain
-> atoms: 1, 2, 3, 4, 5, 6, 7, 8, 9, 10, 11, 12, 13, 14, 15, 16, 17, 18, 19, 21, 37, 38, 39, 40, 41, 42, 43, 44, 45, 46, 47, 48, 49, 50, 51, 52, 53, 54, 55, 56, 57, 58, 59, 60, 61
--> 1: 1
--> 2: 2
--> 3: 3
--> 4: 4
--> 5: 5
--> 6: 6
--> 7: 7
--> 8: 8
--> 9: 9
--> 10: 10
--> 11: 11
--> 12: 12
--> 13: 13
--> 14: 14
--> 15: 15
--> 16: 16
--> 17: 17
--> 18: 18
--> 19: 19
--> 20: 21
--> 21: 37
--> 22: 38
--> 23: 39
--> 24: 40
--> 25: 41
--> 26: 42
--> 27: 43
--> 28: 44
--> 29: 45
--> 30: 46
--> 31: 47
--> 32: 48
--> 33: 49
--> 34: 50
--> 35: 51
--> 36: 52
--> 37: 53
--> 38: 54
--> 39: 55
--> 40: 56
--> 41: 57
--> 42: 58
--> 43: 59
--> 44: 60
--> 45: 61
-> force constant=1.0
$$$$$$$$$$$$$$$$$$$$$$$$$$$$$$$$$$$$$$$$$$$$$$$$$$$$$$$$$$$$$$$$$$$$$$$$
           -------------------------------------------------
          |                   Constraints                   |
           -------------------------------------------------

 * 45 constrained atom positions
   positions refering to input geometry

     #   Z                                   position/Å      displ./Å
     1   7 N    -21.0090019   -19.7650018    22.7790021     0.0000000
     2   6 C    -21.1080020   -18.7100017    21.7280020     0.0000000
     3   6 C    -19.9000018   -18.8090017    20.8500019     0.0000000
     4   6 C    -21.2140020   -17.3110016    22.3380021     0.0000000
     5   8 O    -18.7940017   -18.6110017    21.3130020     0.0000000
     6   6 C    -22.4000021   -17.1450016    23.2180022     0.0000000
     7   6 C    -23.7310022   -17.1840016    22.8460021     0.0000000
     8   7 N    -22.3900021   -16.9540016    24.5730023     0.0000000
     9   6 C    -23.7100022   -16.8810016    24.9490023     0.0000000
    10   7 N    -24.5200023   -17.0190016    23.9240022     0.0000000
    11   1 H    -21.8560020   -19.8150018    23.3600022     0.0000000
    12   1 H    -22.0060020   -18.9020018    21.1230020     0.0000000
    13   1 H    -20.3040019   -17.1140016    22.9130021     0.0000000
    14   1 H    -21.2350020   -16.5570015    21.5450020     0.0000000
    15   1 H    -21.5690020   -16.8710016    25.1720023     0.0000000
    16   1 H    -24.1030022   -17.3260016    21.8410020     0.0000000
    17   1 H    -24.0530022   -16.7300016    25.9650024     0.0000000
    18   1 H    -20.8350019   -20.6860019    22.3400021     0.0000000
    19   1 H    -20.2050019   -19.5630018    23.3850022     0.0000000
    21   6 C    -18.9830018   -19.6060018    18.7380017     0.0000000
    37   7 N    -18.5720017   -17.4340016    17.7080016     0.0000000
    38   6 C    -18.6570017   -16.4630015    16.6330015     0.0000000
    39   6 C    -17.4070016   -16.5060015    15.8080015     0.0000000
    40   6 C    -18.9770018   -15.0530014    17.1700016     0.0000000
    41   8 O    -16.4470015   -15.8400015    16.1190015     0.0000000
    42   6 C    -18.1080017   -14.6670014    18.3510017     0.0000000
    43   8 O    -18.3000017   -15.2890014    19.3890018     0.0000000
    44   8 O    -17.2910016   -13.7680013    18.1830017     0.0000000
    45   1 H    -18.4720017   -17.0620016    18.6620017     0.0000000
    46   1 H    -19.4930018   -16.7980016    15.9910015     0.0000000
    47   1 H    -18.8480017   -14.3100013    16.3770015     0.0000000
    48   1 H    -20.0230019   -15.0030014    17.4950016     0.0000000
    49   7 N    -17.4540016   -17.3200016    14.7100014     0.0000000
    50   6 C    -16.2960015   -17.4860016    13.8690013     0.0000000
    51   6 C    -15.9240015   -16.1750015    13.2330012     0.0000000
    52   6 C    -16.4760015   -18.5830017    12.8130012     0.0000000
    53   8 O    -16.4930015   -15.8070015    12.2260011     0.0000000
    54   1 H    -18.2290017   -17.9610017    14.5440013     0.0000000
    55   1 H    -15.4650014   -17.7900017    14.5390013     0.0000000
    56   1 H    -16.8620016   -19.4890018    13.2890012     0.0000000
    57   1 H    -17.2440016   -18.2510017    12.1080011     0.0000000
    58   7 N    -14.9270014   -15.4490014    13.8450013     0.0000000
    59   6 C    -14.3680013   -14.2880013    13.1920012     0.0000000
    60   1 H    -14.4040013   -15.8190015    14.6380014     0.0000000
    61   1 H    -15.2120014   -13.7210013    12.7730012     0.0000000

     applying 990 atom pairwise harmonic potentials
       applied force constant per pair:     0.0227273
     effective force constant per atom:     1.0000000
         constraining energy/grad norm:     0.0000000     0.0000000

     total constraint energy/grad norm:     0.0000000     0.0000000

          charge from pdb residues: 0

          entering GFN-FF setup routine... 61

          ==================== Thresholds ====================
          CN  :   150.00000
          rep :   500.00000
          disp:  2500.00000
          HB1 :   250.00000
          HB2 :   450.00000

          Pauling EN used:
          Z : 1  EN :  2.20
          Z : 6  EN :  2.55
          Z : 7  EN :  3.04
          Z : 8  EN :  3.44
          electric field strengths (au): 0.000

           ------------------------------------------------- 
          |           Force Field Initialization            |
           ------------------------------------------------- 

          distances ...
          ----------------------------------------
          generating topology and atomic info file ...
          pair mat ...
          computing topology distances matrix with Floyd-Warshall algo ...
          making topology EEQ charges ...
          #fragments for EEQ constrain from pdb file: 5
          ----------------------------------------
          generating topology and atomic info file ...
          pair mat ...
          computing topology distances matrix with Floyd-Warshall algo ...
          making topology EEQ charges ...
          #fragments for EEQ constrain from pdb file: 5
          rings ...
          # BATM   614
          # H in HB   25
          doing iterative Hueckel for 8 subsystem(s) ...
          iterative Hueckel run to get P ...
Hueckel system :  1 charge :   0 ndim/Nel :    3    4   eps(HOMO/LUMO)   -0.904663   -0.904663
Hueckel system :  2 charge :   0 ndim/Nel :    5    6   eps(HOMO/LUMO)   -1.246346    3.256385
Hueckel system :  3 charge :   0 ndim/Nel :    3    4   eps(HOMO/LUMO)   -0.942585   -0.942585
Hueckel system :  4 charge :   0 ndim/Nel :    5    6   eps(HOMO/LUMO)   -1.252430    3.252042
Hueckel system :  5 charge :   0 ndim/Nel :    3    4   eps(HOMO/LUMO)   -0.897682   -0.897682
Hueckel system :  6 charge :   0 ndim/Nel :    3    3   eps(HOMO/LUMO)   -0.829668   -0.829668
Hueckel system :  7 charge :   0 ndim/Nel :    4    4   eps(HOMO/LUMO)   -2.207916    2.534779

  atom   neighbors  erfCN metchar sp-hybrid imet pi  qest     coordinates
    1   N      4    3.49   0.00         3    0    0  -0.258  -39.701256  -37.350437   43.046071
    2   C      4    3.49   0.00         3    0    0   0.022  -39.888339  -35.356776   41.059969
    3   C      3    2.80   0.00         2    0    1   0.145  -37.605550  -35.543859   39.400790
    4   C      4    3.49   0.00         3    0    0  -0.036  -40.088650  -32.713049   42.212702
    5   O      1    0.98   0.00         2    0    1  -0.391  -35.515513  -35.169693   40.275733
    6   C      3    2.96   0.00         2    0    1   0.038  -42.329865  -32.399354   43.875661
    7   C      3    3.05   0.00         2    0    1   0.033  -44.845091  -32.473054   43.172683
    8   N      3    2.88   0.00         3    0    1  -0.197  -42.310968  -32.038417   46.436240
    9   C      3    3.11   0.00         2    0    1   0.074  -44.805406  -31.900467   47.146777
   10   N      2    2.00   0.00         2    0    1  -0.208  -46.336085  -32.161249   45.209808
   11   H      1    0.98   0.00         0    0    0   0.117  -41.301854  -37.444923   44.144002
   12   H      1    0.97   0.01         0    0    0   0.056  -41.585313  -35.719603   39.916685
   13   H      1    0.97   0.00         0    0    0   0.061  -38.368999  -32.340773   43.299295
   14   H      1    0.97   0.00         0    0    0   0.061  -40.128334  -31.288195   40.714149
   15   H      1    0.98   0.00         0    0    0   0.124  -40.759503  -31.881569   47.568186
   16   H      1    0.97   0.00         0    0    0   0.062  -45.548069  -32.741395   41.273508
   17   H      1    0.97   0.00         0    0    0   0.062  -45.453582  -31.615118   49.066739
   18   H      1    0.98   0.00         0    0    0   0.117  -39.372444  -39.090875   42.216482
   19   H      1    0.98   0.00         0    0    0   0.117  -38.181916  -36.968712   44.191245
   20   N      3    2.80   0.00        -3    0    1  -0.168  -37.989164  -36.188255   36.910131
   21   C      4    3.50   0.00         3    0    0   0.029  -35.872671  -37.049970   35.409688
   22   C      3    2.80   0.00         2    0    1   0.131  -35.666691  -35.449372   33.058869
   23   C      4    3.49   0.00         3    0    0  -0.035  -36.118335  -39.875111   34.801196
   24   O      1    0.98   0.00         2    0    1  -0.376  -36.010621  -36.271403   30.942376
   25   C      3    2.96   0.00         2    0    1   0.044  -36.545414  -41.390671   37.129339
   26   C      3    3.05   0.00         2    0    1   0.033  -38.848990  -41.997273   38.208373
   27   N      3    2.88   0.00         3    0    1  -0.192  -34.746394  -42.159790   38.816864
   28   C      3    3.10   0.00         2    0    1   0.078  -36.035187  -43.191580   40.818084
   29   N      2    2.01   0.00         2    0    1  -0.187  -38.491831  -43.072528   40.481713
   30   H      1    0.98   0.00         0    0    0   0.138  -39.731492  -36.685253   36.256285
   31   H      1    0.97   0.00         0    0    0   0.071  -34.175697  -36.758953   36.558642
   32   H      1    0.97   0.00         0    0    0   0.073  -37.690588  -40.147232   33.489726
   33   H      1    0.97   0.00         0    0    0   0.073  -34.427031  -40.540295   33.812870
   34   H      1    0.98   0.00         0    0    0   0.139  -32.841550  -41.914125   38.660017
   35   H      1    0.97   0.00         0    0    0   0.077  -40.689583  -41.604210   37.414688
   36   H      1    0.97   0.00         0    0    0   0.074  -35.164024  -43.964478   42.498051
   37   N      3    2.80   0.00        -3    0    1  -0.095  -35.095994  -32.945485   33.463270
   38   C      4    3.49   0.00         3    0    0   0.035  -35.256620  -31.110561   31.431815
   39   C      3    2.80   0.00         2    0    1   0.211  -32.894463  -31.191819   29.872791
   40   C      4    3.49   0.00         3    0    0  -0.027  -35.861333  -28.446047   32.446598
   41   O      1    0.98   0.00         2    0    1  -0.320  -31.080326  -29.933262   30.460495
   42   C      3    2.79   0.00         2    0    1   0.278  -34.219161  -27.716613   34.678364
   43   O      1    0.98   0.00         2    0    1  -0.313  -34.581988  -28.892023   36.639900
   44   O      1    0.98   0.00         2    0    1  -0.313  -32.675254  -26.017749   34.360890
   45   H      1    0.98   0.00         0    0    0   0.170  -34.907021  -32.242507   35.266069
   46   H      1    0.97   0.01         0    0    0   0.121  -36.836431  -31.743619   30.218610
   47   H      1    0.97   0.00         0    0    0   0.127  -35.617558  -27.041981   30.948045
   48   H      1    0.97   0.00         0    0    0   0.127  -37.837986  -28.351561   33.060759
   49   N      3    2.80   0.00        -3    0    1  -0.208  -32.983280  -32.730056   27.797871
   50   C      4    3.49   0.00         3    0    0   0.038  -30.794977  -33.043751   26.208612
   51   C      3    2.80   0.00         2    0    1   0.163  -30.091999  -30.566320   25.006746
   52   C      3    2.78   0.00         3    0    0  -0.040  -31.135128  -35.116781   24.213061
   53   O      1    0.98   0.00         2    0    1  -0.359  -31.167253  -29.870901   23.103792
   54   H      1    0.98   0.00         0    0    0   0.150  -34.447818  -33.941371   27.484177
   55   H      1    0.97   0.01         0    0    0   0.082  -29.224615  -33.618228   27.474728
   56   H      1    0.97   0.00         0    0    0   0.087  -31.864562  -36.828872   25.112570
   57   H      1    0.97   0.00         0    0    0   0.087  -32.586437  -34.489392   22.880804
   58   N      3    2.79   0.00         3    0    1  -0.055  -28.207942  -29.194379   26.163258
   59   C      2    1.92   0.00        -2    0    1  -0.251  -27.151585  -27.000407   24.929267
   60   H      1    0.98   0.00         0    0    0   0.120  -27.219615  -29.893578   27.661811
   61   H      1    0.97   0.01         0    0    0   0.187  -28.746514  -25.928932   24.137472

molecular fragment  # atoms  topo charge
       1            19            -0.000
       2            17             0.000
       3            12            -0.000
       4             9            -0.000
       5             4            -0.000


          #atoms :   61
          #bonds :   62

 bond atoms        type  in ring    R      R0    piBO    fqq  kbond(tot)  alp
 C  N     2    1      1    0     1.492   1.362 -99.000   1.047  -0.153   0.496
 C  C     3    2      1    0     1.497   1.332 -99.000   1.002  -0.160   0.475
 C  C     4    2      1    0     1.530   1.371 -99.000   1.033  -0.153   0.468
 O  C     5    3      2    0     1.215   1.031   0.859   1.047  -0.262   0.584
 C  C     6    4      1    0     1.486   1.341 -99.000   1.038  -0.166   0.475
 C  C     7    6      2    5     1.383   1.247   0.755   1.010  -0.273   0.491
 N  C     8    6      2    5     1.368   1.267   0.556   1.047  -0.250   0.524
 C  N     9    8      2    5     1.374   1.275   0.558   1.047  -0.250   0.524
 N  C    10    7      2    5     1.346   1.228   0.550   1.047  -0.239   0.519
 N  C    10    9      2    5     1.314   1.195   0.750   1.047  -0.278   0.519
 H  N    11    1      1    0     1.028   0.924 -99.000   1.047  -0.176   0.551
 H  C    12    2      1    0     1.100   0.976 -99.000   1.010  -0.163   0.482
 H  C    13    4      1    0     1.094   0.976 -99.000   1.043  -0.168   0.482
 H  C    14    4      1    0     1.094   0.976 -99.000   1.043  -0.168   0.482
 H  N    15    8      1    0     1.020   0.894 -99.000   1.047  -0.176   0.551
 H  C    16    7      1    0     1.081   0.964 -99.000   1.005  -0.175   0.490
 H  C    17    9      1    0     1.083   0.967 -99.000   1.000  -0.174   0.490
 H  N    18    1      1    0     1.035   0.924 -99.000   1.047  -0.176   0.551
 H  N    19    1      1    0     1.027   0.924 -99.000   1.047  -0.176   0.551
 N  C    20    3      2    0     1.376   1.264   0.500   1.047  -0.234   0.524
 C  N    21   20      1    0     1.447   1.326 -99.000   1.047  -0.153   0.496
 C  C    22   21      1    0     1.509   1.333 -99.000   1.001  -0.160   0.475
 C  C    23   21      1    0     1.535   1.371 -99.000   1.035  -0.154   0.468
 O  C    24   22      2    0     1.215   1.030   0.862   1.047  -0.262   0.584
 C  C    25   23      1    0     1.487   1.341 -99.000   1.039  -0.166   0.475
 C  C    26   25      2    5     1.384   1.247   0.755   1.008  -0.273   0.491
 N  C    27   25      2    5     1.367   1.267   0.555   1.047  -0.250   0.524
 C  N    28   27      2    5     1.373   1.275   0.559   1.047  -0.250   0.524
 N  C    29   26      2    5     1.344   1.228   0.550   1.047  -0.239   0.519
 N  C    29   28      2    5     1.314   1.195   0.749   1.047  -0.278   0.519
 H  N    30   20      1    0     1.019   0.890 -99.000   1.047  -0.176   0.551
 H  C    31   21      1    0     1.095   0.977 -99.000   1.005  -0.162   0.482
 H  C    32   23      1    0     1.093   0.976 -99.000   1.044  -0.168   0.482
 H  C    33   23      1    0     1.095   0.976 -99.000   1.044  -0.168   0.482
 H  N    34   27      1    0     1.020   0.894 -99.000   1.047  -0.176   0.551
 H  C    35   26      1    0     1.081   0.964 -99.000   1.003  -0.174   0.490
 H  C    36   28      1    0     1.082   0.967 -99.000   1.000  -0.174   0.490
 N  C    37   22      2    0     1.376   1.265   0.494   1.047  -0.233   0.524
 C  N    38   37      1    0     1.451   1.326 -99.000   1.046  -0.153   0.496
 C  C    39   38      1    0     1.498   1.333 -99.000   1.000  -0.160   0.475
 C  C    40   38      1    0     1.542   1.371 -99.000   1.034  -0.153   0.468
 O  C    41   39      2    0     1.209   1.032   0.852   1.047  -0.261   0.584
 C  C    42   40      1    0     1.516   1.331 -99.000   1.047  -0.168   0.475
 O  C    43   42      2    0     1.225   1.058   0.703   1.047  -0.236   0.584
 O  C    44   42      2    0     1.226   1.058   0.703   1.047  -0.236   0.584
 H  N    45   37      1    0     1.029   0.890 -99.000   1.047  -0.176   0.551
 H  C    46   38      1    0     1.106   0.976 -99.000   1.001  -0.161   0.482
 H  C    47   40      1    0     1.094   0.976 -99.000   1.046  -0.168   0.482
 H  C    48   40      1    0     1.096   0.976 -99.000   1.046  -0.168   0.482
 N  C    49   39      2    0     1.368   1.262   0.511   1.047  -0.236   0.524
 C  N    50   49      1    0     1.441   1.326 -99.000   1.047  -0.153   0.496
 C  C    51   50      1    0     1.504   1.333 -99.000   1.000  -0.160   0.475
 C  C    52   50      1    0     1.533   1.331 -99.000   1.039  -0.154   0.468
 O  C    53   51      2    0     1.214   1.014   0.951   1.047  -0.278   0.584
 H  N    54   49      1    0     1.019   0.890 -99.000   1.047  -0.176   0.551
 H  C    55   50      1    0     1.110   0.976 -99.000   1.002  -0.161   0.482
 H  C    56   52      1    0     1.094   0.938 -99.000   1.046  -0.168   0.482
 H  C    57   52      1    0     1.094   0.938 -99.000   1.046  -0.168   0.482
 N  C    58   51      2    0     1.377   1.303   0.284   1.047  -0.191   0.524
 C  N    59   58      2    0     1.445   1.153   0.841   1.000  -0.287   0.524
 H  N    60   58      1    0     1.019   0.890 -99.000   1.047  -0.176   0.551
 H  C    61   59      1    0     1.100   0.903 -99.000   1.047  -0.182   0.490
          #angl  :   105

 angle atoms        phi0    phi      FC  pi rings
    1   11    2   104.000 112.185   0.209 F   0
    1   18    2   104.000 109.967   0.209 F   0
    1   18   11   104.000 109.563   0.221 F   0
    1   19    2   104.000 109.176   0.209 F   0
    1   19   11   104.000 108.726   0.221 F   0
    1   19   18   104.000 107.081   0.221 F   0
    2    3    1   109.500 108.229   0.306 F   0
    2    4    1   109.500 111.730   0.306 F   0
    2    4    3   109.500 110.507   0.305 F   0
    2   12    1   109.500 108.553   0.253 F   0
    2   12    3   109.500 108.954   0.252 F   0
    2   12    4   109.500 108.811   0.251 F   0
    3    5    2   120.000 120.020   0.179 F   0
    3   20    2   120.000 117.328   0.243 F   0
    3   20    5   120.000 122.643   0.177 F   0
    4    6    2   109.500 113.175   0.304 F   0
    4   13    2   109.500 108.452   0.251 F   0
    4   13    6   109.500 109.414   0.251 F   0
    4   14    2   109.500 110.025   0.251 F   0
    4   14    6   109.500 109.681   0.251 F   0
    4   14   13   108.600 105.822   0.208 F   0
    6    7    4   120.000 127.287   0.244 F   0
    6    8    4   120.000 126.591   0.245 F   0
    6    8    7   109.000 106.105   0.265 F   5
    7   10    6   109.000 110.204   0.265 F   5
    7   16    6   120.000 125.813   0.202 F   0
    7   16   10   120.000 123.983   0.203 F   0
    8    9    6   113.000 105.740   0.076 F   5
    8   15    6   113.000 126.793   0.174 F   0
    8   15    9   113.000 127.462   0.173 F   0
    9   10    8   109.000 111.909   0.264 F   5
    9   17    8   120.000 124.629   0.202 F   0
    9   17   10   120.000 123.462   0.202 F   0
   10    9    7   105.000 106.041   0.284 F   5
   20   21    3   115.000 119.305   0.409 F   0
   20   30    3   115.000 121.491   0.335 F   0
   20   30   21   104.000 115.637   0.182 F   0
   21   22   20   109.500 109.359   0.306 F   0
   21   23   20   109.500 110.892   0.306 F   0
   21   23   22   109.500 112.329   0.305 F   0
   21   31   20   109.500 106.603   0.253 F   0
   21   31   22   109.500 108.631   0.252 F   0
   21   31   23   109.500 108.835   0.251 F   0
   22   24   21   120.000 123.236   0.180 F   0
   22   37   21   120.000 115.356   0.245 F   0
   22   37   24   120.000 121.400   0.179 F   0
   23   25   21   109.500 111.366   0.304 F   0
   23   32   21   109.500 109.028   0.251 F   0
   23   32   25   109.500 109.831   0.251 F   0
   23   33   21   109.500 110.132   0.251 F   0
   23   33   25   109.500 110.278   0.251 F   0
   23   33   32   108.600 106.059   0.208 F   0
   25   26   23   120.000 126.921   0.244 F   0
   25   27   23   120.000 126.564   0.245 F   0
   25   27   26   109.000 105.950   0.265 F   5
   26   29   25   109.000 110.098   0.265 F   5
   26   35   25   120.000 126.071   0.202 F   0
   26   35   29   120.000 123.775   0.203 F   0
   27   28   25   113.000 106.040   0.076 F   5
   27   34   25   113.000 126.667   0.174 F   0
   27   34   28   113.000 127.196   0.173 F   0
   28   29   27   109.000 111.594   0.264 F   5
   28   36   27   120.000 124.933   0.202 F   0
   28   36   29   120.000 123.452   0.202 F   0
   29   28   26   105.000 106.304   0.285 F   5
   37   38   22   115.000 121.090   0.412 F   0
   37   45   22   115.000 120.919   0.338 F   0
   37   45   38   104.000 116.787   0.182 F   0
   38   39   37   109.500 109.867   0.307 F   0
   38   40   37   109.500 111.466   0.306 F   0
   38   40   39   109.500 113.019   0.305 F   0
   38   46   37   109.500 105.760   0.253 F   0
   38   46   39   109.500 107.595   0.253 F   0
   38   46   40   109.500 108.794   0.252 F   0
   39   41   38   120.000 120.329   0.178 F   0
   39   49   38   120.000 115.498   0.241 F   0
   39   49   41   120.000 124.170   0.174 F   0
   40   42   38   109.500 112.645   0.303 F   0
   40   47   38   109.500 110.117   0.251 F   0
   40   47   42   109.500 108.907   0.250 F   0
   40   48   38   109.500 110.048   0.251 F   0
   40   48   42   109.500 107.714   0.250 F   0
   40   48   47   108.600 107.235   0.208 F   0
   42   43   40   120.000 116.157   0.175 F   0
   42   44   40   120.000 117.500   0.175 F   0
   42   44   43   122.000 126.342   0.253 F   0
   49   50   39   115.000 120.637   0.404 F   0
   49   54   39   115.000 122.083   0.330 F   0
   49   54   50   104.000 116.332   0.180 F   0
   50   51   49   109.500 110.196   0.306 F   0
   50   52   49   109.500 112.960   0.305 F   0
   50   52   51   109.500 111.191   0.305 F   0
   50   55   49   109.500 106.318   0.253 F   0
   50   55   51   109.500 107.991   0.253 F   0
   50   55   52   109.500 107.920   0.252 F   0
   51   53   50   120.000 119.948   0.179 F   0
   51   58   50   120.000 116.796   0.246 F   0
   51   58   53   120.000 123.256   0.179 F   0
   52   56   50   109.500 109.532   0.217 F   0
   52   57   50   109.500 108.004   0.217 F   0
   52   57   56   108.600 106.502   0.180 F   0
   58   59   51   113.000 120.203   0.075 F   0
   58   60   51   113.000 121.728   0.231 F   0
   58   60   59   113.000 116.410   0.120 F   0
   59   61   58   145.000 106.835   0.089 F   0
 torsion atoms        nrot   rings    phi0    phi      FC
    2    1    3   11   3      0     180.000 174.154   0.131
    2    1    3   18   3      0     180.000  51.952   0.131
    2    1    3   19   3      0     180.000  65.256   0.131
    2    1    4   11   3      0     180.000  63.955   0.126
    2    1    4   18   3      0     180.000 173.843   0.126
    2    1    4   19   3      0     180.000  56.635   0.126
    2    1   12   11   3      0     180.000  56.038   0.187
    2    1   12   18   3      0     180.000  66.164   0.187
    2    1   12   19   3      0     180.000 176.628   0.187
    3    2    5    1   3      0     180.000  63.263   0.031
    3    2    5    4   3      0     180.000  59.377   0.077
    3    2    5   12   3      0     180.000 178.878   0.115
    3    2   20    1   3      0     180.000 115.657   0.020
    3    2   20    4   3      0     180.000 121.704   0.048
    3    2   20   12   3      0     180.000   2.202   0.072
    4    2    6    1   3      0     180.000  59.705   0.039
    4    2    6    3   3      0     180.000 179.725   0.100
    4    2    6   12   3      0     180.000  60.136   0.142
    4    2   13    1   3      0     180.000  61.896   0.056
    4    2   13    3   3      0     180.000  58.675   0.142
    4    2   13   12   3      0     180.000 178.263   0.203
    4    2   14    1   3      0     180.000 177.207   0.056
    4    2   14    3   3      0     180.000  56.636   0.142
    4    2   14   12   3      0     180.000  62.952   0.203
    6    4    7    2   3      0     180.000  65.373   0.046
    6    4    7   13   3      0     180.000 173.569   0.068
    6    4    7   14   3      0     180.000  57.906   0.068
    6    4    8    2   3      0     180.000 112.911   0.037
    6    4    8   13   3      0     180.000   8.148   0.056
    6    4    8   14   3      0     180.000 123.811   0.056
    7    6   10    4   2      5       0.000 178.789   0.728
    7    6   10    8   2      5       0.000   0.224   0.618
    7    6   16    4   2      5       0.000   1.174   1.203
    7    6   16    8   2      5       0.000 179.740   1.020
    8    6    9    4   2      5       0.000 178.862   0.577
    8    6    9    7   2      5       0.000   0.284   0.601
    8    6   15    4   2      5       0.000   1.896   0.822
    8    6   15    7   2      5       0.000 179.526   0.856
    9    8   10    6   2      5       0.000   0.263   0.588
    9    8   10   15   2      5       0.000 179.498   0.839
    9    8   17    6   2      5       0.000 179.842   0.972
    9    8   17   15   2      5       0.000   0.607   1.386
   10    7    9    6   2      5       0.000   0.064   0.589
   10    7    9   16   2      5       0.000 179.900   0.839
   10    9    7    8   2      5       0.000   0.125   0.711
   10    9    7   17   2      5       0.000 179.979   1.243
   20    3   21    2   2      0     180.000 163.559   0.582
   20    3   21    5   2      0     180.000  15.330   0.789
   20    3   30    2   2      0     180.000   5.787   0.864
   20    3   30    5   2      0     180.000 173.102   1.171
   21   20   22    3   3      0     180.000 125.475   0.023
   21   20   22   30   3      0     180.000  75.491   0.032
   21   20   23    3   3      0     180.000 110.113   0.022
   21   20   23   30   3      0     180.000  48.922   0.031
   21   20   31    3   3      0     180.000   8.208   0.032
   21   20   31   30   3      0     180.000 167.243   0.046
   22   21   24   20   3      0     180.000 114.007   0.066
   22   21   24   23   3      0     180.000   9.562   0.078
   22   21   24   31   3      0     180.000 130.012   0.115
   22   21   37   20   3      0     180.000  64.951   0.041
   22   21   37   23   3      0     180.000 171.480   0.049
   22   21   37   31   3      0     180.000  51.030   0.072
   23   21   25   20   3      0     180.000  52.285   0.082
   23   21   25   22   3      0     180.000 174.992   0.100
   23   21   25   31   3      0     180.000  64.675   0.143
   23   21   32   20   3      0     180.000  69.065   0.116
   23   21   32   22   3      0     180.000  53.643   0.143
   23   21   32   31   3      0     180.000 173.975   0.203
   23   21   33   20   3      0     180.000 174.954   0.116
   23   21   33   22   3      0     180.000  62.339   0.143
   23   21   33   31   3      0     180.000  57.994   0.203
   25   23   26   21   3      0     180.000  89.625   0.046
   25   23   26   32   3      0     180.000  31.255   0.068
   25   23   26   33   3      0     180.000 147.790   0.068
   25   23   27   21   3      0     180.000  80.528   0.038
   25   23   27   32   3      0     180.000 158.591   0.056
   25   23   27   33   3      0     180.000  42.056   0.056
   26   25   29   23   2      5       0.000 171.151   0.730
   26   25   29   27   2      5       0.000   0.637   0.619
   26   25   35   23   2      5       0.000   6.208   1.206
   26   25   35   27   2      5       0.000 177.995   1.023
   27   25   28   23   2      5       0.000 171.948   0.582
   27   25   28   26   2      5       0.000   0.122   0.606
   27   25   34   23   2      5       0.000   4.670   0.830
   27   25   34   26   2      5       0.000 176.496   0.864
   28   27   29   25   2      5       0.000   0.871   0.592
   28   27   29   34   2      5       0.000 175.724   0.844
   28   27   36   25   2      5       0.000 179.235   0.979
   28   27   36   34   2      5       0.000   2.641   1.395
   29   26   28   25   2      5       0.000   1.159   0.585
   29   26   28   35   2      5       0.000 178.591   0.834
   29   28   26   27   2      5       0.000   1.256   0.705
   29   28   26   36   2      5       0.000 179.649   1.233
   37   22   38   21   2      0     180.000 169.539   0.510
   37   22   38   24   2      0     180.000   9.440   0.691
   37   22   45   21   2      0     180.000   2.483   0.757
   37   22   45   24   2      0     180.000 176.496   1.026
   38   37   39   22   3      0     180.000  82.463   0.022
   38   37   39   45   3      0     180.000 109.967   0.032
   38   37   40   22   3      0     180.000 151.461   0.021
   38   37   40   45   3      0     180.000  16.108   0.030
   38   37   46   22   3      0     180.000  33.382   0.032
   38   37   46   45   3      0     180.000 134.187   0.045
   39   38   41   37   3      0     180.000  87.170   0.069
   39   38   41   40   3      0     180.000  38.020   0.081
   39   38   41   46   3      0     180.000 158.149   0.120
   39   38   49   37   3      0     180.000  93.527   0.043
   39   38   49   40   3      0     180.000 141.284   0.051
   39   38   49   46   3      0     180.000  21.154   0.075
   40   38   42   37   3      0     180.000  47.420   0.081
   40   38   42   39   3      0     180.000  76.901   0.100
   40   38   42   46   3      0     180.000 163.659   0.143
   40   38   47   37   3      0     180.000 169.203   0.116
   40   38   47   39   3      0     180.000  44.883   0.143
   40   38   47   46   3      0     180.000  74.558   0.203
   40   38   48   37   3      0     180.000  72.792   0.116
   40   38   48   39   3      0     180.000 162.888   0.143
   40   38   48   46   3      0     180.000  43.447   0.203
   42   40   43   38   3      0     180.000  68.296   0.064
   42   40   43   47   3      0     180.000 169.237   0.095
   42   40   43   48   3      0     180.000  53.250   0.095
   42   40   44   38   3      0     180.000 111.985   0.064
   42   40   44   47   3      0     180.000  10.481   0.095
   42   40   44   48   3      0     180.000 126.469   0.095
   49   39   50   38   2      0     180.000 177.504   0.706
   49   39   50   41   2      0     180.000   3.223   0.957
   49   39   54   38   2      0     180.000   9.059   1.048
   49   39   54   41   2      0     180.000 171.668   1.420
   50   49   51   39   3      0     180.000  63.226   0.023
   50   49   51   54   3      0     180.000 127.689   0.033
   50   49   52   39   3      0     180.000 171.734   0.023
   50   49   52   54   3      0     180.000   2.650   0.033
   50   49   55   39   3      0     180.000  53.556   0.033
   50   49   55   54   3      0     180.000 115.528   0.048
   51   50   53   49   3      0     180.000  82.952   0.068
   51   50   53   52   3      0     180.000  43.092   0.083
   51   50   53   55   3      0     180.000 161.313   0.119
   51   50   58   49   3      0     180.000  97.280   0.042
   51   50   58   52   3      0     180.000 136.676   0.052
   51   50   58   55   3      0     180.000  18.455   0.074
   52   50   56   49   3      0     180.000  48.709   0.117
   52   50   56   51   3      0     180.000 173.207   0.143
   52   50   56   55   3      0     180.000  68.530   0.204
   52   50   57   49   3      0     180.000  66.898   0.117
   52   50   57   51   3      0     180.000  57.600   0.143
   52   50   57   55   3      0     180.000 175.863   0.204
   58   51   59   50   2      0     180.000 170.439   0.127
   58   51   59   53   2      0     180.000   9.321   0.173
   58   51   60   50   2      0     180.000   5.644   0.171
   58   51   60   53   2      0     180.000 174.115   0.232
   59   58   61   51   2      0     180.000  43.610   1.432
   59   58   61   60   2      0     180.000 150.813   2.041
 out-of-plane atoms          phi0    phi      FC
    3    5   20    2          0.000   0.987  22.089
    6    8    7    4          0.000  -1.141   0.431
    7   16   10    6          0.000   0.034   0.425
    8   15    6    9          0.000  -0.730   0.008
    9   17   10    8          0.000  -0.096   0.497
   20   30    3   21          0.000  19.262   0.125
   22   24   37   21          0.000   0.923  21.285
   25   27   26   23          0.000   6.558   0.441
   26   35   29   25          0.000  -2.412   0.425
   27   34   25   28          0.000  -3.250   0.018
   28   36   29   27          0.000   1.494   0.505
   37   45   22   38          0.000  11.059   0.416
   39   41   49   38          0.000  -0.656  26.126
   42   43   44   40          0.000  -0.278  28.337
   49   54   39   50          0.000   9.924  -0.032
   51   53   58   50          0.000  -0.215  27.662
   58   60   51   59          0.000 -13.102   0.332
          #tors  :   169
          #nmol  :   5
          #optfrag :   5

 GFN-FF setup done.

           ------------------------------------------------- 
          |                   G F N - F F                   |
          |          A general generic force-field          |
          |                  Version 1.0.3                  | 
           ------------------------------------------------- 
      * Solvation model:               ALPB
        Solvent                        water
        Parameter file                 internal GFN-FF/ALPB
        Dielectric constant                8.0200E+01
        Reference state                gsolv [1 M gas/solution]
        Free energy shift                  3.6494E-04 Eh       2.2900E-01 kcal/mol
        Temperature                        2.9815E+02 K
        Density                            1.0000E+00 kg/L
        Solvent mass                       1.8000E+01 g/mol
        Interaction kernel             P16
        Born radius scaling (c1)           1.5056E+00
        Born radii integrator          GBOBC
        Born offset                        0.0000E+00 a0       0.0000E+00 AA
        H-bond correction              true
        Ion screening                  false
        Surface tension                    1.0000E-05 Eh       1.5569E+01 dyn/cm
        Grid points                               230 per atom
          Number of HB bonds (bound hydrogen)     2174
          Number of HB bonds (unbound hydrogen)   210
          Number of XB bonds                      0

 E+G (total)                   0 d,  0 h,  0 min,  0.002 sec
 distance/D3 list               ...        0 min,  0.000 sec (  0.657%)
 non bonded repulsion           ...        0 min,  0.000 sec (  2.011%)
 dCN                            ...        0 min,  0.000 sec (  5.476%)
 EEQ energy and q               ...        0 min,  0.000 sec (  4.112%)
 D3                             ...        0 min,  0.000 sec (  7.897%)
 EEQ gradient                   ...        0 min,  0.000 sec (  5.671%)
 bonds                          ...        0 min,  0.000 sec (  0.699%)
 bend and torsion               ...        0 min,  0.000 sec (  3.010%)
 bonded ATM                     ...        0 min,  0.000 sec (  1.229%)
 HB/XB (incl list setup)        ...        0 min,  0.000 sec ( 17.336%)
 GBSA                           ...        0 min,  0.001 sec ( 56.174%)

         :::::::::::::::::::::::::::::::::::::::::::::::::::::
         ::                     SUMMARY                     ::
         :::::::::::::::::::::::::::::::::::::::::::::::::::::
         :: total energy             -11.488544430298 Eh    ::
         :: total w/o Gsolv          -11.427190532384 Eh    ::
         :: total w/o Gsasa/hb       -11.471339512706 Eh    ::
         :: gradient norm              0.187131892623 Eh/a0 ::
         ::.................................................::
         :: bond energy              -11.679644555725 Eh    ::
         :: angle energy               0.046181785698 Eh    ::
         :: torsion energy             0.015971316930 Eh    ::
         :: repulsion energy           0.771892484822 Eh    ::
         :: electrostat energy        -0.508154899764 Eh    ::
         :: dispersion energy         -0.055045555421 Eh    ::
         :: HB energy                 -0.004293717775 Eh    ::
         :: XB energy                  0.000000000000 Eh    ::
         :: bonded atm energy         -0.014097391149 Eh    ::
         :: external energy            0.000000000000 Eh    ::
         :: -> Gsolv                  -0.061353897914 Eh    ::
         ::    -> Gborn               -0.044148980322 Eh    ::
         ::    -> Gsasa                0.003691339296 Eh    ::
         ::    -> Ghb                 -0.021261196144 Eh    ::
         ::    -> Gshift               0.000364939255 Eh    ::
         :: add. restraining           0.000000000000 Eh    ::
         :: total charge              -0.000000000000 e     ::
         ::.................................................::
         :: atomisation energy         0.000000000000 Eh    ::
         :::::::::::::::::::::::::::::::::::::::::::::::::::::

      ----------------------------------------------------------- 
     |                   =====================                   |
     |                        A N C O P T                        |
     |                   =====================                   |
     |               Approximate Normal Coordinate               |
     |                Rational Function Optimizer                |
      ----------------------------------------------------------- 

          ...................................................
          :                      SETUP                      :
          :.................................................:
          :   optimization level         verytight          :
          :   max. optcycles                    10          :
          :   ANC micro-cycles                  10          :
          :   degrees of freedom               177          :
          :.................................................:
          :   RF solver                   davidson          :
          :   write xtbopt.log                true          :
          :   linear?                        false          :
          :   energy convergence         0.1000000E-06 Eh   :
          :   grad. convergence          0.2000000E-03 Eh/α :
          :   maxmium RF displ.          1.0000000          :
          :   Hlow (freq-cutoff)         0.1000000E-01      :
          :   Hmax (freq-cutoff)         5.0000000          :
          :   S6 in model hess.         20.0000000          :
          ...................................................

generating ANC from model Hessian ...
Using GFN-FF Lindh-Hessian
 Shifting diagonal of input Hessian by    9.3693495510299672E-003
 Lowest  eigenvalues of input Hessian
    0.000000    0.000000    0.000000    0.000000    0.000000    0.000000
    0.010000    0.010244    0.010770    0.015975    0.018020    0.035788
    0.040784    0.046368    0.050717    0.062227    0.068837    0.071806
 Highest eigenvalues
    3.734532    3.865477    4.136570    4.172256    4.177840    4.417380


........................................................................
.............................. CYCLE    1 ..............................
........................................................................
     iter. time                 ...        0 min,  0.002 sec
 * total energy  :   -11.4885444 Eh     change        0.0000000E+00 Eh
   gradient norm :     0.1871319 Eh/α   predicted     0.0000000E+00 (    NaN%)
   displ. norm   :     0.1081322 α      lambda       -0.1457031E-01
   maximum displ.:     0.0423539 α      in ANC's #45, #169, #91, ...

........................................................................
.............................. CYCLE    2 ..............................
........................................................................
     iter. time                 ...        0 min,  0.001 sec
 * total energy  :   -11.4982594 Eh     change       -0.9715019E-02 Eh
   gradient norm :     0.0693097 Eh/α   predicted    -0.7376573E-02 ( -24.07%)
   displ. norm   :     0.0528797 α      lambda       -0.2921483E-02
   maximum displ.:     0.0250776 α      in ANC's #169, #91, #81, ...

........................................................................
.............................. CYCLE    3 ..............................
........................................................................
     iter. time                 ...        0 min,  0.001 sec
 * total energy  :   -11.4998387 Eh     change       -0.1579215E-02 Eh
   gradient norm :     0.0166349 Eh/α   predicted    -0.1465124E-02 (  -7.22%)
   displ. norm   :     0.0173234 α      lambda       -0.1885964E-03
   maximum displ.:     0.0073278 α      in ANC's #45, #6, #91, ...

........................................................................
.............................. CYCLE    4 ..............................
........................................................................
     iter. time                 ...        0 min,  0.001 sec
 * total energy  :   -11.4999808 Eh     change       -0.1421791E-03 Eh
   gradient norm :     0.0086091 Eh/α   predicted    -0.9810358E-04 ( -31.00%)
   displ. norm   :     0.0190094 α      lambda       -0.9246147E-04
   maximum displ.:     0.0077677 α      in ANC's #6, #45, #11, ...

........................................................................
.............................. CYCLE    5 ..............................
........................................................................
     iter. time                 ...        0 min,  0.001 sec
 * total energy  :   -11.5000301 Eh     change       -0.4923584E-04 Eh
   gradient norm :     0.0018039 Eh/α   predicted    -0.4625475E-04 (  -6.05%)
   displ. norm   :     0.0097758 α      lambda       -0.4013281E-05
   maximum displ.:     0.0076005 α      in ANC's #6, #15, #4, ...

........................................................................
.............................. CYCLE    6 ..............................
........................................................................
     iter. time                 ...        0 min,  0.001 sec
 * total energy  :   -11.5000347 Eh     change       -0.4608571E-05 Eh
   gradient norm :     0.0012112 Eh/α   predicted    -0.2012111E-05 ( -56.34%)
   displ. norm   :     0.0252471 α      lambda       -0.6477901E-05
   maximum displ.:     0.0206588 α      in ANC's #6, #5, #4, ...

........................................................................
.............................. CYCLE    7 ..............................
........................................................................
     iter. time                 ...        0 min,  0.001 sec
 * total energy  :   -11.5000411 Eh     change       -0.6438683E-05 Eh
   gradient norm :     0.0014216 Eh/α   predicted    -0.3248871E-05 ( -49.54%)
   displ. norm   :     0.0242586 α      lambda       -0.3306394E-05
   maximum displ.:     0.0200858 α      in ANC's #6, #5, #4, ...

........................................................................
.............................. CYCLE    8 ..............................
........................................................................
     iter. time                 ...        0 min,  0.001 sec
 * total energy  :   -11.5000449 Eh     change       -0.3739785E-05 Eh
   gradient norm :     0.0014880 Eh/α   predicted    -0.1682337E-05 ( -55.02%)
   displ. norm   :     0.0294649 α      lambda       -0.3232956E-05
   maximum displ.:     0.0242690 α      in ANC's #6, #5, #4, ...

........................................................................
.............................. CYCLE    9 ..............................
........................................................................
     iter. time                 ...        0 min,  0.001 sec
 * total energy  :   -11.5000480 Eh     change       -0.3179904E-05 Eh
   gradient norm :     0.0009923 Eh/α   predicted    -0.1620272E-05 ( -49.05%)
   displ. norm   :     0.0139369 α      lambda       -0.1121809E-05
   maximum displ.:     0.0107037 α      in ANC's #6, #5, #4, ...

........................................................................
.............................. CYCLE   10 ..............................
........................................................................
     iter. time                 ...        0 min,  0.001 sec
 * total energy  :   -11.5000492 Eh     change       -0.1175296E-05 Eh
   gradient norm :     0.0005773 Eh/α   predicted    -0.5887063E-06 ( -49.91%)
   displ. norm   :     0.0060650 α      lambda       -0.4808982E-06
   maximum displ.:     0.0030962 α      in ANC's #6, #5, #4, ...

   *** FAILED TO CONVERGE GEOMETRY OPTIMIZATION IN 10 ITERATIONS ***


 ANCopt (total)                0 d,  0 h,  0 min,  0.018 sec
 optimizer setup                ...        0 min,  0.000 sec (  0.755%)
 model hessian                  ...        0 min,  0.001 sec (  3.136%)
 ANC generation                 ...        0 min,  0.002 sec ( 10.266%)
 coordinate transformation      ...        0 min,  0.000 sec (  0.385%)
 single point calculation       ...        0 min,  0.014 sec ( 77.917%)
 optimization log               ...        0 min,  0.001 sec (  4.144%)
 hessian update                 ...        0 min,  0.000 sec (  0.568%)
 rational function              ...        0 min,  0.000 sec (  1.779%)

================
 final structure:
================
ATOM      1  N   HIS A   1     -21.009 -19.764  22.779  1.00  0.00           N  
ATOM      2  CA  HIS A   1     -21.108 -18.708  21.730  1.00  0.00           C  
ATOM      3  C   HIS A   1     -19.900 -18.808  20.850  1.00  0.00           C  
ATOM      4  CB  HIS A   1     -21.213 -17.310  22.338  1.00  0.00           C  
ATOM      5  O   HIS A   1     -18.794 -18.611  21.313  1.00  0.00           O  
ATOM      6  CG  HIS A   1     -22.399 -17.144  23.218  1.00  0.00           C  
ATOM      7  CD2 HIS A   1     -23.731 -17.183  22.846  1.00  0.00           C  
ATOM      8  ND1 HIS A   1     -22.389 -16.953  24.573  1.00  0.00           N  
ATOM      9  CE1 HIS A   1     -23.709 -16.880  24.949  1.00  0.00           C  
ATOM     10  NE2 HIS A   1     -24.520 -17.018  23.924  1.00  0.00           N  
ATOM     11  H   HIS A   1     -21.856 -19.814  23.360  1.00  0.00           H  
ATOM     12  HA  HIS A   1     -22.006 -18.901  21.123  1.00  0.00           H  
ATOM     13  HB2 HIS A   1     -20.304 -17.114  22.913  1.00  0.00           H  
ATOM     14  HB3 HIS A   1     -21.234 -16.556  21.545  1.00  0.00           H  
ATOM     15  HD1 HIS A   1     -21.568 -16.870  25.172  1.00  0.00           H  
ATOM     16  HD2 HIS A   1     -24.103 -17.325  21.841  1.00  0.00           H  
ATOM     17  HE1 HIS A   1     -24.052 -16.729  25.965  1.00  0.00           H  
ATOM     18  H2  HIS A   1     -20.835 -20.685  22.340  1.00  0.00           H  
ATOM     19  H3  HIS A   1     -20.205 -19.563  23.385  1.00  0.00           H  
ATOM     20  N   HIS A   2     -20.105 -19.158  19.535  1.00  0.00           N  
ATOM     21  CA  HIS A   2     -18.987 -19.608  18.733  1.00  0.00           C  
ATOM     22  C   HIS A   2     -18.888 -18.754  17.497  1.00  0.00           C  
ATOM     23  CB  HIS A   2     -19.104 -21.100  18.415  1.00  0.00           C  
ATOM     24  O   HIS A   2     -19.116 -19.189  16.386  1.00  0.00           O  
ATOM     25  CG  HIS A   2     -19.333 -21.905  19.646  1.00  0.00           C  
ATOM     26  CD2 HIS A   2     -20.553 -22.225  20.214  1.00  0.00           C  
ATOM     27  ND1 HIS A   2     -18.384 -22.311  20.542  1.00  0.00           N  
ATOM     28  CE1 HIS A   2     -19.070 -22.857  21.598  1.00  0.00           C  
ATOM     29  NE2 HIS A   2     -20.369 -22.794  21.417  1.00  0.00           N  
ATOM     30  H   HIS A   2     -21.027 -19.424  19.188  1.00  0.00           H  
ATOM     31  HA  HIS A   2     -18.085 -19.446  19.344  1.00  0.00           H  
ATOM     32  HB2 HIS A   2     -19.933 -21.248  17.717  1.00  0.00           H  
ATOM     33  HB3 HIS A   2     -18.206 -21.450  17.896  1.00  0.00           H  
ATOM     34  HD1 HIS A   2     -17.375 -22.181  20.462  1.00  0.00           H  
ATOM     35  HD2 HIS A   2     -21.527 -22.017  19.790  1.00  0.00           H  
ATOM     36  HE1 HIS A   2     -18.610 -23.267  22.489  1.00  0.00           H  
ATOM     37  N   ASP A   3     -18.572 -17.434  17.708  1.00  0.00           N  
ATOM     38  CA  ASP A   3     -18.662 -16.459  16.633  1.00  0.00           C  
ATOM     39  C   ASP A   3     -17.411 -16.504  15.805  1.00  0.00           C  
ATOM     40  CB  ASP A   3     -18.977 -15.052  17.170  1.00  0.00           C  
ATOM     41  O   ASP A   3     -16.446 -15.846  16.120  1.00  0.00           O  
ATOM     42  CG  ASP A   3     -18.108 -14.667  18.351  1.00  0.00           C  
ATOM     43  OD1 ASP A   3     -18.299 -15.289  19.389  1.00  0.00           O  
ATOM     44  OD2 ASP A   3     -17.293 -13.766  18.182  1.00  0.00           O  
ATOM     45  H   ASP A   3     -18.472 -17.062  18.662  1.00  0.00           H  
ATOM     46  HA  ASP A   3     -19.494 -16.797  15.991  1.00  0.00           H  
ATOM     47  HB2 ASP A   3     -18.848 -14.309  16.377  1.00  0.00           H  
ATOM     48  HB3 ASP A   3     -20.023 -15.002  17.495  1.00  0.00           H  
ATOM     49  N   HIS A   4     -17.453 -17.321  14.711  1.00  0.00           N  
ATOM     50  CA  HIS A   4     -16.292 -17.497  13.867  1.00  0.00           C  
ATOM     51  C   HIS A   4     -15.933 -16.178  13.228  1.00  0.00           C  
ATOM     52  CB  HIS A   4     -16.486 -18.580  12.816  1.00  0.00           C  
ATOM     53  O   HIS A   4     -16.491 -15.808  12.228  1.00  0.00           O  
ATOM     54  H   HIS A   4     -18.229 -17.961  14.545  1.00  0.00           H  
ATOM     55  HA  HIS A   4     -15.466 -17.790  14.538  1.00  0.00           H  
ATOM     56  HB2 HIS A   4     -16.854 -19.485  13.289  1.00  0.00           H  
ATOM     57  HB3 HIS A   4     -17.233 -18.258  12.111  1.00  0.00           H  
ATOM     58  N   HIS A   5     -14.919 -15.402  13.844  1.00  0.00           N  
ATOM     59  CA  HIS A   5     -14.390 -14.317  13.188  1.00  0.00           C  
ATOM     60  H   HIS A   5     -14.409 -15.819  14.632  1.00  0.00           H  
ATOM     61  HA  HIS A   5     -15.170 -13.729  12.787  1.00  0.00           H  
END

 Bond Distances (Angstroems)
 ---------------------------
N1-C2=1.4920         N1-H11=1.0284        N1-H18=1.0352        N1-H19=1.0266        C2-N1=1.4920         C2-C3=1.4982         
C2-C4=1.5278         C2-H12=1.1008        C3-C2=1.4982         C3-O5=1.2147         C3-N20=1.3760        C4-C2=1.5278         
C4-C6=1.4864         C4-H13=1.0935        C4-H14=1.0947        O5-C3=1.2147         C6-C4=1.4864         C6-C7=1.3830         
C6-N8=1.3680         C7-C6=1.3830         C7-N10=1.3460        C7-H16=1.0810        N8-C6=1.3680         N8-C9=1.3745         
N8-H15=1.0199        C9-N8=1.3745         C9-N10=1.3138        C9-H17=1.0828        N10-C7=1.3460        N10-C9=1.3138        
H11-N1=1.0284        H12-C2=1.1008        H13-C4=1.0935        H14-C4=1.0947        H15-N8=1.0199        H16-C7=1.0810        
H17-C9=1.0828        H18-N1=1.0352        H19-N1=1.0266        N20-C3=1.3760        N20-C21=1.4472       N20-H30=1.0207       
C21-N20=1.4472       C21-C22=1.5058       C21-C23=1.5301       C21-H31=1.1009       C22-C21=1.5058       C22-O24=1.2145       
C22-N37=1.3743       C23-C21=1.5301       C23-C25=1.4881       C23-H32=1.0940       C23-H33=1.0942       O24-C22=1.2145       
C25-C23=1.4881       C25-C26=1.3834       C25-N27=1.3671       C26-C25=1.3834       C26-N29=1.3443       C26-H35=1.0816       
N27-C25=1.3671       N27-C28=1.3733       N27-H34=1.0202       C28-N27=1.3733       C28-N29=1.3127       C28-H36=1.0832       
N29-C26=1.3443       N29-C28=1.3127       H30-N20=1.0207       H31-C21=1.1009       H32-C23=1.0940       H33-C23=1.0942       
H34-N27=1.0202       H35-C26=1.0816       H36-C28=1.0832       N37-C22=1.3743       N37-C38=1.4538       N37-H45=1.0289       
C38-N37=1.4538       C38-C39=1.5009       C38-C40=1.5379       C38-H46=1.1045       C39-C38=1.5009       C39-O41=1.2100       
C39-N49=1.3664       C40-C38=1.5379       C40-C42=1.5161       C40-H47=1.0947       C40-H48=1.0961       O41-C39=1.2100       
C42-C40=1.5161       C42-O43=1.2259       C42-O44=1.2261       O43-C42=1.2259       O44-C42=1.2261       H45-N37=1.0289       
H46-C38=1.1045       H47-C40=1.0947       H48-C40=1.0961       N49-C39=1.3664       N49-C50=1.4461       N49-H54=1.0192       
C50-N49=1.4461       C50-C51=1.5090       C50-C52=1.5218       C50-H55=1.1039       C51-C50=1.5090       C51-O53=1.2031       
C51-N58=1.4176       C52-C50=1.5218       C52-H56=1.0854       C52-H57=1.0765       O53-C51=1.2031       H54-N49=1.0192       
H55-C50=1.1039       H56-C52=1.0854       H57-C52=1.0765       N58-C51=1.4176       N58-C59=1.3740       N58-H60=1.0272       
C59-N58=1.3740       C59-H61=1.0560       H60-N58=1.0272       H61-C59=1.0560       
 C  H  Rav=1.0896 sigma=0.0118  Rmin=1.0560  Rmax=1.1045    17
 C  C  Rav=1.4914 sigma=0.0485  Rmin=1.3830  Rmax=1.5379    13
 N  H  Rav=1.0251 sigma=0.0052  Rmin=1.0192  Rmax=1.0352     9
 N  C  Rav=1.3851 sigma=0.0484  Rmin=1.3127  Rmax=1.4920    17
 O  C  Rav=1.2157 sigma=0.0082  Rmin=1.2031  Rmax=1.2261     6

 selected bond angles (degree)
 --------------------
H11-N1-C2=112.13               H18-N1-C2=110.05               H18-N1-H11=109.54              H19-N1-C2=109.14               
H19-N1-H11=108.76              H19-N1-H18=107.09              C3-C2-N1=108.18                C4-C2-N1=111.87                
C4-C2-C3=110.53                H12-C2-N1=108.52               H12-C2-C3=108.76               H12-C2-C4=108.91               
O5-C3-C2=119.95                N20-C3-C2=117.31               N20-C3-O5=122.72               C6-C4-C2=113.13                
H13-C4-C2=108.45               H13-C4-C6=109.43               H14-C4-C2=110.06               H14-C4-C6=109.66               
H14-C4-H13=105.85              C7-C6-C4=127.29                N8-C6-C4=126.59                N8-C6-C7=106.11                
N10-C7-C6=110.19               H16-C7-C6=125.82               H16-C7-N10=123.99              C9-N8-C6=105.76                
H15-N8-C6=126.78               H15-N8-C9=127.46               N10-C9-N8=111.90               H17-C9-N8=124.64               
H17-C9-N10=123.46              C9-N10-C7=106.04               

 selected dihedral angles (degree)
 ---------------------------------
C3-C2-N1-H11=185.95           C3-C2-N1-H18=308.15           C3-C2-N1-H19= 65.39           C4-C2-N1-H11= 63.98           
C4-C2-N1-H18=186.17           C4-C2-N1-H19=303.41           H12-C2-N1-H11=303.80          H12-C2-N1-H18= 65.99          
H12-C2-N1-H19=183.23          O5-C3-C2-N1=296.66            O5-C3-C2-C4= 59.45            O5-C3-C2-H12=178.97           
N20-C3-C2-N1=115.15           N20-C3-C2-C4=237.95           N20-C3-C2-H12=357.47          C6-C4-C2-N1=300.27            
C6-C4-C2-C3=179.65            C6-C4-C2-H12= 60.22           H13-C4-C2-N1= 61.86           H13-C4-C2-C3=301.24           
H13-C4-C2-H12=181.81          H14-C4-C2-N1=177.23           H14-C4-C2-C3= 56.60           H14-C4-C2-H12=297.18          
C7-C6-C4-C2=294.59            C7-C6-C4-H13=173.56           C7-C6-C4-H14= 57.86           N8-C6-C4-C2=112.89            
N8-C6-C4-H13=351.85           N8-C6-C4-H14=236.15           N10-C7-C6-C4=178.78           N10-C7-C6-N8=  0.21           
H16-C7-C6-C4=358.86           H16-C7-C6-N8=180.29           C9-N8-C6-C4=181.14            C9-N8-C6-C7=359.72            
H15-N8-C6-C4=  1.90           H15-N8-C6-C7=180.48           N10-C9-N8-C6=  0.27           N10-C9-N8-H15=179.50          
H17-C9-N8-C6=180.16           H17-C9-N8-H15=359.39          C9-N10-C7-C6=359.95           C9-N10-C7-H16=179.88          
C7-N10-C9-N8=359.87           C7-N10-C9-H17=179.97          
           -------------------------------------------------
          |                Final Singlepoint                |
           -------------------------------------------------
         :::::::::::::::::::::::::::::::::::::::::::::::::::::
         ::                     SUMMARY                     ::
         :::::::::::::::::::::::::::::::::::::::::::::::::::::
         :: total energy             -11.500049696494 Eh    ::
         :: total w/o Gsolv          -11.438678056592 Eh    ::
         :: total w/o Gsasa/hb       -11.482843708418 Eh    ::
         :: gradient norm              0.000395063602 Eh/a0 ::
         ::.................................................::
         :: bond energy              -11.703627587132 Eh    ::
         :: angle energy               0.045089106495 Eh    ::
         :: torsion energy             0.017588385822 Eh    ::
         :: repulsion energy           0.779231051275 Eh    ::
         :: electrostat energy        -0.508476106847 Eh    ::
         :: dispersion energy         -0.055032395082 Eh    ::
         :: HB energy                 -0.004291234063 Eh    ::
         :: XB energy                  0.000000000000 Eh    ::
         :: bonded atm energy         -0.014536205164 Eh    ::
         :: external energy            0.000000000000 Eh    ::
         :: -> Gsolv                  -0.061371639901 Eh    ::
         ::    -> Gborn               -0.044165651826 Eh    ::
         ::    -> Gsasa                0.003729927107 Eh    ::
         ::    -> Ghb                 -0.021300854437 Eh    ::
         ::    -> Gshift               0.000364939255 Eh    ::
         :: add. restraining           0.005376928104 Eh    ::
         :: total charge               0.000000000000 e     ::
         ::.................................................::
         :: atomisation energy         0.000000000000 Eh    ::
         :::::::::::::::::::::::::::::::::::::::::::::::::::::

           -------------------------------------------------
          |                Property Printout                |
           -------------------------------------------------
           -------------------------------------------------
          |                Geometry Summary                 |
           -------------------------------------------------

      molecular mass/u    :      488.4779359
   center of mass at/Å    :      -19.0725485     -17.9306754      18.7224821
  moments of inertia/u·Å² :        0.2878486E+04   0.9443353E+04   0.1146981E+05
rotational constants/cm⁻¹ :        0.5856423E-02   0.1785132E-02   0.1469739E-02

 * 54 selected distances

     #   Z          #   Z                                           value/Å
     1   7  N       2   6  C                                      1.4919815
     2   6  C       4   6  C                                      1.5277539
     3   6  C       5   8  O                                      1.2147406
     4   6  C       6   6  C                                      1.4864148
     6   6  C       7   6  C                                      1.3829941
     6   6  C       8   7  N                                      1.3680183
     8   7  N       9   6  C                                      1.3744760
     7   6  C      10   7  N                                      1.3460407
     9   6  C      10   7  N                                      1.3137906
     1   7  N      11   1  H                                      1.0284121
     2   6  C      12   1  H                                      1.1007985
     4   6  C      13   1  H                                      1.0934567
     4   6  C      14   1  H                                      1.0946690
     8   7  N      15   1  H                                      1.0198601
     7   6  C      16   1  H                                      1.0809925
     9   6  C      17   1  H                                      1.0827727
     1   7  N      18   1  H                                      1.0352135
     1   7  N      19   1  H                                      1.0266186
     3   6  C      20   7  N                                      1.3760051
    20   7  N      21   6  C                                      1.4472364
    21   6  C      23   6  C                                      1.5300504
    22   6  C      24   8  O                                      1.2144713
    23   6  C      25   6  C                                      1.4881285
    25   6  C      26   6  C                                      1.3833563
    25   6  C      27   7  N                                      1.3671218
    27   7  N      28   6  C                                      1.3733270
    26   6  C      29   7  N                                      1.3443100
    28   6  C      29   7  N                                      1.3127419
    20   7  N      30   1  H                                      1.0207255
    21   6  C      31   1  H                                      1.1009400
    23   6  C      32   1  H                                      1.0940436
    23   6  C      33   1  H                                      1.0942287
    27   7  N      34   1  H                                      1.0201800
    26   6  C      35   1  H                                      1.0816420
    28   6  C      36   1  H                                      1.0831737
    22   6  C      37   7  N                                      1.3743190
    37   7  N      38   6  C                                      1.4537747
    38   6  C      40   6  C                                      1.5378933 (max)
    39   6  C      41   8  O                                      1.2099902
    42   6  C      43   8  O                                      1.2259046
    42   6  C      44   8  O                                      1.2260912
    37   7  N      45   1  H                                      1.0289098
    38   6  C      46   1  H                                      1.1045051
    40   6  C      47   1  H                                      1.0947071
    40   6  C      48   1  H                                      1.0960768
    39   6  C      49   7  N                                      1.3663713
    49   7  N      50   6  C                                      1.4461141
    51   6  C      53   8  O                                      1.2031239
    49   7  N      54   1  H                                      1.0192205 (min)
    50   6  C      55   1  H                                      1.1038649
    52   6  C      56   1  H                                      1.0854009
    52   6  C      57   1  H                                      1.0765397
    51   6  C      58   7  N                                      1.4175766
    58   7  N      60   1  H                                      1.0271792

 * 5 distinct bonds (by element types)

   Z      Z             #   av. dist./Å        max./Å        min./Å
   1 H    6 C          16     1.0917382     1.1045051     1.0765397
   6 C    6 C           7     1.4766559     1.5378933     1.3829941
   1 H    7 N           9     1.0251466     1.0352135     1.0192205
   6 C    7 N          16     1.3858253     1.4919815     1.3127419
   6 C    8 O           6     1.2157203     1.2260912     1.2031239


optimized geometry written to: xtbopt.pdb


           -------------------------------------------------
          | TOTAL ENERGY              -11.500049696494 Eh   |
          | GRADIENT NORM               0.000395063602 Eh/α |
           -------------------------------------------------
########################################################################
[WARNING] Runtime exception occurred
-1- gfnff_setup: Could not read topology file.
########################################################################

------------------------------------------------------------------------
 unit  open   action     filename
   10 false : read       xtb_settings.inp
   10 false : read       substructure_17.pdb
   10 false : read       xtb_settings.inp
   10 false : written    gfnff_topo
   10 false : written    gfnff_adjacency
   10 false : written    gfnff_charges
   10 false : deleted    .xtboptok
   10 false : replaced   xtbopt.log
   11 false : created    .xtboptok
   11 false : replaced   gfnff_charges
   10 false : replaced   xtbopt.pdb

------------------------------------------------------------------------
 * finished run on 2025/05/27 at 09:37:38.659     
------------------------------------------------------------------------
 total:
 * wall-time:     0 d,  0 h,  0 min,  0.027 sec
 *  cpu-time:     0 d,  0 h,  0 min,  0.027 sec
 * ratio c/w:     0.999 speedup
 SCF:
 * wall-time:     0 d,  0 h,  0 min,  0.002 sec
 *  cpu-time:     0 d,  0 h,  0 min,  0.002 sec
 * ratio c/w:     0.999 speedup
 ANC optimizer:
 * wall-time:     0 d,  0 h,  0 min,  0.020 sec
 *  cpu-time:     0 d,  0 h,  0 min,  0.020 sec
 * ratio c/w:     0.998 speedup

