61
 energy: -11.488228083960 gnorm: 0.187343266688 xtb: 6.6.1 (8d0f1dd)
 N         -21.00700000000000      -19.77100000000000       22.77200000000000
 C         -21.10800000000000      -18.71000000000000       21.72800000000000
 C         -19.90100000000000      -18.80300000000000       20.84500000000000
 C         -21.21200000000000      -17.31600000000000       22.34800000000000
 O         -18.79500000000000      -18.61900000000000       21.31300000000000
 C         -22.39500000000000      -17.15600000000000       23.23300000000000
 C         -23.72900000000000      -17.19300000000000       22.86500000000000
 N         -22.38000000000000      -16.97300000000000       24.58900000000000
 C         -23.69900000000000      -16.90300000000000       24.97000000000000
 N         -24.51300000000000      -17.03600000000000       23.94800000000000
 H         -21.85200000000000      -19.82300000000000       23.35700000000000
 H         -22.00700000000000      -18.89800000000000       21.12300000000000
 H         -20.30099999999999      -17.12200000000000       22.91900000000000
 H         -21.23700000000000      -16.55500000000000       21.56000000000000
 H         -21.55700000000000      -16.89300000000000       25.18500000000000
 H         -24.10400000000000      -17.33000000000000       21.86100000000000
 H         -24.03800000000000      -16.76000000000000       25.98800000000000
 H         -20.83800000000000      -20.69000000000000       22.32600000000000
 H         -20.20000000000000      -19.57500000000000       23.37500000000000
 N         -20.10300000000000      -19.13500000000000       19.52500000000000
 C         -18.98300000000000      -19.60600000000000       18.73800000000000
 C         -18.85300000000000      -18.75600000000000       17.49500000000000
 C         -19.13000000000000      -21.09700000000000       18.40900000000000
 O         -19.05400000000000      -19.18700000000000       16.37600000000000
 C         -19.37400000000000      -21.90300000000000       19.63600000000000
 C         -20.59900000000000      -22.21800000000000       20.19600000000000
 N         -18.43200000000000      -22.32600000000000       20.53200000000000
 C         -19.12700000000000      -22.87600000000000       21.58000000000000
 N         -20.42400000000000      -22.80000000000000       21.39500000000000
 H         -21.02600000000000      -19.39700000000000       19.17600000000000
 H         -18.08900000000000      -19.46500000000000       19.35200000000000
 H         -19.96100000000000      -21.22800000000000       17.71000000000000
 H         -18.23800000000000      -21.45900000000000       17.89000000000000
 H         -17.42100000000000      -22.20800000000000       20.45500000000000
 H         -21.56900000000000      -21.99900000000000       19.77000000000000
 H         -18.67400000000000      -23.29900000000000       22.46900000000000
 N         -18.53500000000000      -17.43500000000000       17.70600000000000
 C         -18.65700000000000      -16.46300000000000       16.63300000000000
 C         -17.41900000000000      -16.46900000000000       15.78700000000000
 C         -19.00600000000000      -15.06200000000000       17.17700000000000
 O         -16.48400000000000      -15.75600000000000       16.06900000000000
 C         -18.11800000000000      -14.64300000000000       18.33200000000000
 O         -18.23700000000000      -15.28700000000000       19.36800000000000
 O         -17.36300000000000      -13.69500000000000       18.14699999999999
 H         -18.46000000000000      -17.06000000000000       18.66100000000000
 H         -19.49200000000000      -16.81700000000000       16.00100000000000
 H         -18.92100000000000      -14.31700000000000       16.37800000000000
 H         -20.04300000000000      -15.04400000000000       17.52800000000000
 N         -17.44700000000000      -17.32600000000000       14.72600000000000
 C         -16.29600000000000      -17.48600000000000       13.86900000000000
 C         -15.90800000000000      -16.18800000000000       13.22100000000000
 C         -16.49200000000000      -18.59700000000000       12.83100000000000
 O         -16.44200000000000      -15.85100000000000       12.18600000000000
 H         -18.14400000000000      -18.07500000000000       14.68600000000000
 H         -15.45700000000000      -17.79500000000000       14.53700000000000
 H         -16.91700000000000      -19.48100000000000       13.31400000000000
 H         -17.23300000000000      -18.25200000000000       12.10300000000000
 N         -14.94600000000000      -15.43600000000000       13.84800000000000
 C         -14.36800000000000      -14.28800000000000       13.19200000000000
 H         -14.44800000000000      -15.78400000000000       14.66700000000000
 H         -15.20700000000000      -13.71300000000000       12.76600000000000
61
 energy: -11.497951861404 gnorm: 0.070006367025 xtb: 6.6.1 (8d0f1dd)
 N         -21.00656796410792      -19.77104318374330       22.77235785931946
 C         -21.10809103342034      -18.70922763219168       21.72948908398545
 C         -19.90081145589888      -18.80310820686568       20.84518906417518
 C         -21.21190898568573      -17.31570565852124       22.34817749450917
 O         -18.79482027351298      -18.61909396078740       21.31287982022923
 C         -22.39501585684748      -17.15618475103976       23.23339043868108
 C         -23.72858751843714      -17.19329356000961       22.86566554408935
 N         -22.37987454204510      -16.97325281291817       24.58918039978279
 C         -23.69863703878648      -16.90341386966852       24.97048545525306
 N         -24.51279534119163      -17.03635764657835       23.94842408292577
 H         -21.85124475269467      -19.82323306101027       23.35738003273612
 H         -22.00677967985420      -18.89805855934598       21.12345666359935
 H         -20.30062718639186      -17.12204800791661       22.91928354473913
 H         -21.23686552881788      -16.55527482012961       21.56033464986565
 H         -21.55655428027728      -16.89316697459160       25.18530892393406
 H         -24.10388293868152      -17.33038242617877       21.86143127504717
 H         -24.03751392327234      -16.76041439882799       25.98852772859184
 H         -20.83747125443119      -20.68992166261437       22.32620214763108
 H         -20.19928480528213      -19.57497255740249       23.37521086952979
 N         -20.10310978080178      -19.13570479520663       19.52446230959722
 C         -18.98467760970873      -19.60743729974581       18.73445802650289
 C         -18.85339777132589      -18.75592914129998       17.49398167259168
 C         -19.13028264979472      -21.09726510996783       18.40880047477938
 O         -19.05509948583527      -19.18575328332818       16.37525875331859
 C         -19.37397292518479      -21.90308575223147       19.63589565588020
 C         -20.59910183655367      -22.21799419884477       20.19587314622729
 N         -18.43175995437131      -22.32593497883096       20.53177977701066
 C         -19.12683073540786      -22.87603598266406       21.58023096049310
 N         -20.42406471695945      -22.80007265247546       21.39498674762769
 H         -21.02623393619764      -19.39745969643277       19.17614806094591
 H         -18.08725984066610      -19.46555164642028       19.35123568463908
 H         -19.96137310958159      -21.22820324060248       17.70978547252367
 H         -18.23819358208150      -21.45934725391201       17.88929452749875
 H         -17.42114506735786      -22.20795468339353       20.45472489337836
 H         -21.56899903375408      -21.99901387639599       19.76988616572152
 H         -18.67397444127561      -23.29884330410981       22.46899015729310
 N         -18.53618005805992      -17.43443748141013       17.70569135997986
 C         -18.66013551032960      -16.46000426467398       16.63398435927054
 C         -17.42002891273327      -16.46901249137473       15.78712740470837
 C         -19.00711816792513      -15.06128564046768       17.17691703915114
 O         -16.48404775394608      -15.75768488150855       16.06929772991348
 C         -18.11910872254611      -14.64245750211656       18.33164658767302
 O         -18.23755746465898      -15.28671282223426       19.36791113094711
 O         -17.36511295780424      -13.69357628225478       18.14650512525155
 H         -18.46029221394927      -17.06000512738559       18.66110563459669
 H         -19.49308475124693      -16.81623926387426       16.00094355437055
 H         -18.92184122149186      -14.31662291392569       16.37783363002564
 H         -20.04420743682908      -15.04377920764599       17.52787017942513
 N         -17.44742261190714      -17.32737978678113       14.72600060343269
 C         -16.29376517184511      -17.49220450830058       13.86848603510044
 C         -15.91666228444816      -16.18483467109724       13.21607861254224
 C         -16.49745413019534      -18.59434320851057       12.83436696683763
 O         -16.44741130296233      -15.85380110097851       12.18494020339484
 H         -18.14516483023088      -18.07552791261520       14.68636231130412
 H         -15.45949547787711      -17.79375429603328       14.53496832794761
 H         -16.91068946335724      -19.47772460554881       13.31355911983563
 H         -17.22460569295074      -18.25815095474005       12.10635484721271
 N         -14.94343895981003      -15.41086313228828       13.84259693318644
 C         -14.38146005555798      -14.30950428918473       13.19271051454240
 H         -14.45180570601229      -15.77274382792367       14.66424780482936
 H         -15.17509830483061      -13.72260918092231       12.77632641986686
61
 energy: -11.499579906067 gnorm: 0.016812330643 xtb: 6.6.1 (8d0f1dd)
 N         -21.00608176545392      -19.77107994100114       22.77245620404439
 C         -21.10778033363556      -18.70873166831502       21.73019991483194
 C         -19.90057452774886      -18.80298951066371       20.84528076636433
 C         -21.21171109892806      -17.31563162773684       22.34811320682998
 O         -18.79463932072474      -18.61902614281399       21.31272821637909
 C         -22.39488457865974      -17.15636461661719       23.23345980141406
 C         -23.72823220156883      -17.19357865968424       22.86591468784762
 N         -22.37968554620880      -16.97339888228398       24.58916110786272
 C         -23.69830792345246      -16.90371662071741       24.97068313200090
 N         -24.51262662590984      -17.03667044370533       23.94851909582728
 H         -21.85067526626424      -19.82332421410401       23.35751483336713
 H         -22.00633637466008      -18.89830754996402       21.12360553601912
 H         -20.30031183782041      -17.12207300560104       22.91931169619686
 H         -21.23672474640384      -16.55541769552862       21.56036548282376
 H         -21.55620671918573      -16.89321206190247       25.18537872633690
 H         -24.10374684361956      -17.33079611681473       21.86156811749324
 H         -24.03710619860323      -16.76064036548032       25.98873533259503
 H         -20.83682652688008      -20.68993369192614       22.32641545189718
 H         -20.19870931596278      -19.57486423407771       23.37528950359527
 N         -20.10323387564173      -19.13571209018815       19.52458208663436
 C         -18.98645306623493      -19.60812358974457       18.73270359403514
 C         -18.85366657125716      -18.75604226087020       17.49401616617251
 C         -19.13075810274611      -21.09688402068939       18.40917647681411
 O         -19.05563317808050      -19.18578130463629       16.37557679154542
 C         -19.37426494930201      -21.90301215493199       19.63601067697723
 C         -20.59944095419907      -22.21786393356666       20.19581909953069
 N         -18.43193784599033      -22.32591378300094       20.53164922365780
 C         -19.12705882572768      -22.87617223495457       21.58031968618163
 N         -20.42438719310173      -22.80019314278512       21.39484486657398
 H         -21.02640445242695      -19.39727402881571       19.17667891582447
 H         -18.08722245167887      -19.46555177467820       19.35143987275285
 H         -19.96184321440887      -21.22760877199886       17.70991235763760
 H         -18.23862373509417      -21.45902320370435       17.88926249833541
 H         -17.42154552145089      -22.20797294325712       20.45458506989128
 H         -21.56924950332029      -21.99877741892087       19.76986766279161
 H         -18.67431650488632      -23.29901585602309       22.46887082959978
 N         -18.53651350782927      -17.43433051007495       17.70533746539225
 C         -18.66171220686369      -16.45828766128368       16.63393218968310
 C         -17.42049936026222      -16.46879819213762       15.78685262354214
 C         -19.00759967411342      -15.06137725667310       17.17649039819266
 O         -16.48401336434637      -15.75843681723627       16.06916762406921
 C         -18.11972087927878      -14.64240068619032       18.33124783179263
 O         -18.23780474501068      -15.28667966486717       19.36770411161532
 O         -17.36637271620885      -13.69300725805794       18.14586071197680
 H         -18.46044675537249      -17.05986246667723       18.66088470626345
 H         -19.49326700397415      -16.81655325020202       16.00059850598351
 H         -18.92234047406321      -14.31673267673879       16.37743852155430
 H         -20.04482524272232      -15.04415087563367       17.52746210707025
 N         -17.44738705585045      -17.32760608690614       14.72585562788077
 C         -16.29100401850343      -17.49798945631152       13.86898766261702
 C         -15.92088054611764      -16.18595293772064       13.21405162616496
 C         -16.50079077614500      -18.59297732379088       12.83447037324859
 O         -16.44800070817174      -15.85343459203931       12.18548249542065
 H         -18.14536105944399      -18.07536777862960       14.68632483092953
 H         -15.45930964565816      -17.79313391378118       14.53516830939372
 H         -16.90707272781382      -19.47708354028537       13.31420592255613
 H         -17.22114368847339      -18.26047683716601       12.10736217442370
 N         -14.93981193670792      -15.39448231242413       13.84307294242309
 C         -14.39134608776886      -14.31646652274143       13.19004887119168
 H         -14.45321799067208      -15.77556517798755       14.66301537588566
 H         -15.16235013138964      -13.72316664273953       12.78096030204622
61
 energy: -11.499721628595 gnorm: 0.008475386763 xtb: 6.6.1 (8d0f1dd)
 N         -21.00610085325609      -19.77108932832900       22.77241184399447
 C         -21.10771605586399      -18.70865101113707       21.73020565055712
 C         -19.90053772305865      -18.80295486304933       20.84527912328019
 C         -21.21171275532519      -17.31564504534458       22.34806237015870
 O         -18.79463140217030      -18.61900951453484       21.31273760201197
 C         -22.39490151822213      -17.15635456380182       23.23340250505577
 C         -23.72822379275636      -17.19357684917125       22.86586360274406
 N         -22.37972892314475      -16.97337896830333       24.58909692317872
 C         -23.69833396045916      -16.90374839404511       24.97063646106721
 N         -24.51268229692429      -17.03669032239532       23.94842421381222
 H         -21.85070700879770      -19.82330748408763       23.35748511489406
 H         -22.00630005295085      -18.89834981215594       21.12358276412437
 H         -20.30032045507961      -17.12205921671388       22.91928552430546
 H         -21.23673125211540      -16.55540167933916       21.56032103422667
 H         -21.55625518200866      -16.89317751874752       25.18533610331497
 H         -24.10375903990811      -17.33082852228939       21.86150842975958
 H         -24.03714447466999      -16.76062494120260       25.98867278379874
 H         -20.83679786951534      -20.68993627115101       22.32643306069187
 H         -20.19873496941456      -19.57484836581502       23.37527197071711
 N         -20.10323311336339      -19.13557824971514       19.52473244513267
 C         -18.98697988881638      -19.60817017228218       18.73250019371827
 C         -18.85358473925942      -18.75604323946897       17.49433484554925
 C         -19.13077558832314      -21.09664338653611       18.40936238347974
 O         -19.05535714753929      -19.18601342568664       16.37590111153419
 C         -19.37427119473325      -21.90296596507604       19.63606737578144
 C         -20.59945951180681      -22.21785796007958       20.19574056377943
 N         -18.43192770130725      -22.32590268346571       20.53161940157382
 C         -19.12706714782347      -22.87626204281247       21.58028007141190
 N         -20.42439074678901      -22.80033754914513       21.39467780877014
 H         -21.02636613783367      -19.39711793862552       19.17676804777966
 H         -18.08778246200144      -19.46535840362468       19.35171722295282
 H         -19.96179434171058      -21.22731049065663       17.70992766301602
 H         -18.23862599358650      -21.45878074991062       17.88939569335920
 H         -17.42154794568740      -22.20794246156775       20.45460782221092
 H         -21.56925063645384      -21.99874123119579       19.76978506762282
 H         -18.67435668954942      -23.29917173288935       22.46879771674470
 N         -18.53631919560502      -17.43442009889377       17.70534632962320
 C         -18.66175787880680      -16.45806106236022       16.63383995924794
 C         -17.42054424237324      -16.46867362647773       15.78680261297531
 C         -19.00742602700107      -15.06147622419396       17.17648874780173
 O         -16.48396865239591      -15.75844720443157       16.06909832265077
 C         -18.11953089162463      -14.64250089066866       18.33130803770027
 O         -18.23764048028175      -15.28675847363365       19.36774770223447
 O         -17.36618567062550      -13.69312054321686       18.14586499531708
 H         -18.46048582240226      -17.05984741784108       18.66084370007333
 H         -19.49314971730912      -16.81671339266737       16.00059181571943
 H         -18.92218358810062      -14.31676590109901       16.37747345245955
 H         -20.04470109705560      -15.04416494016198       17.52747691462796
 N         -17.44755408359260      -17.32711012985150       14.72569949600324
 C         -16.29014187017800      -17.49937454771549       13.86954376027535
 C         -15.92062859513342      -16.18819515594860       13.21433130029343
 C         -16.50149273236259      -18.59264649468918       12.83389704014296
 O         -16.44606822039398      -15.85248266875546       12.18620807855729
 H         -18.14523571630874      -18.07521974903401       14.68626799093585
 H         -15.45878590606246      -17.79327925027408       14.53561681560283
 H         -16.90676053912689      -19.47730368948165       13.31446824819354
 H         -17.22163197901375      -18.25987177122037       12.10703160835597
 N         -14.93832785846433      -15.39186804448768       13.84532330811389
 C         -14.39384313707758      -14.31499412451360       13.18787253600075
 H         -14.45290446787012      -15.78025132906117       14.66249507530940
 H         -15.16464105860858      -13.72162291496914       12.78012963567422
61
 energy: -11.499764319493 gnorm: 0.001505792227 xtb: 6.6.1 (8d0f1dd)
 N         -21.00627996545694      -19.77112064333279       22.77231507005812
 C         -21.10776741918464      -18.70863675610331       21.73011789652978
 C         -19.90058708314659      -18.80297493125432       20.84524631911424
 C         -21.21174175431094      -17.31567370674339       22.34803778978796
 O         -18.79469085136522      -18.61906589325147       21.31274810331922
 C         -22.39492667009035      -17.15629907571139       23.23336384763494
 C         -23.72825462825142      -17.19345393649989       22.86581471046267
 N         -22.37977432064562      -16.97335063268350       24.58906165880994
 C         -23.69837375156986      -16.90371071183960       24.97059902471593
 N         -24.51274150538174      -17.03657882050532       23.94835534404849
 H         -21.85088826642239      -19.82328349328453       23.35740537490504
 H         -22.00639484418980      -18.89829892334108       21.12352270582780
 H         -20.30035543138375      -17.12209735894605       22.91926914494220
 H         -21.23672734434755      -16.55536859236637       21.56030701088940
 H         -21.55631371087142      -16.89319159549969       25.18530737626578
 H         -24.10379426499142      -17.33069667193552       21.86146009489802
 H         -24.03720322017654      -16.76053125149012       25.98861748697801
 H         -20.83698488002874      -20.68995558331041       22.32634931836975
 H         -20.19891071690134      -19.57491652428451       23.37519895301691
 N         -20.10323908395691      -19.13546753369952       19.52482642538192
 C         -18.98732328622469      -19.60818644030557       18.73243136342585
 C         -18.85338233178991      -18.75602194704445       17.49466536445126
 C         -19.13065723048517      -21.09651660111937       18.40948155696548
 O         -19.05479481584937      -19.18627564589418       16.37617991382627
 C         -19.37419940832244      -21.90294799825164       19.63612681375821
 C         -20.59941987869955      -22.21785759758535       20.19566206191022
 N         -18.43185913457578      -22.32590415291184       20.53163910410535
 C         -19.12703629406446      -22.87631558489223       21.58026684826201
 N         -20.42433836498080      -22.80045604019468       21.39451953467633
 H         -21.02629149040208      -19.39701128593194       19.17664045200737
 H         -18.08848530590814      -19.46514444240528       19.35202305478013
 H         -19.96155956188633      -21.22720061690862       17.70985605692750
 H         -18.23846843814605      -21.45865340595069       17.88957485953106
 H         -17.42146052026655      -22.20793951147379       20.45471479246216
 H         -21.56919758062951      -21.99872014010807       19.76968383352147
 H         -18.67436004228285      -23.29927884205026       22.46878861834083
 N         -18.53606631029171      -17.43454177246239       17.70542847269014
 C         -18.66162687558516      -16.45806167086092       16.63381157571305
 C         -17.42056159261557      -16.46864134280676       15.78680897962049
 C         -19.00718588632221      -15.06154065523360       17.17659116512555
 O         -16.48386275957682      -15.75848531110057       16.06910810458703
 C         -18.11921350640528      -14.64263243159767       18.33146931116765
 O         -18.23742728085303      -15.28689803986677       19.36784165772921
 O         -17.36576989743471      -13.69334212020494       18.14603049914831
 H         -18.46051177407458      -17.05988034824733       18.66084252166566
 H         -19.49305050772682      -16.81677217045704       16.00063385615110
 H         -18.92195625164138      -14.31676449346224       16.37760598336982
 H         -20.04448931261759      -15.04410394398453       17.52758018739862
 N         -17.44791803040193      -17.32649037564716       14.72544632277263
 C         -16.28958478725579      -17.49984583266649       13.87003774923873
 C         -15.91996681449072      -16.19043687030272       13.21476592274469
 C         -16.50185021192116      -18.59249490941275       12.83343752800378
 O         -16.44394351363326      -15.85154744217115       12.18691464807191
 H         -18.14503260240602      -18.07525754027231       14.68629190433154
 H         -15.45839005734319      -17.79350389134921       14.53594686758219
 H         -16.90690933037756      -19.47748155723595       13.31455591516316
 H         -17.22242038144627      -18.25915680459581       12.10666396389414
 N         -14.93731778624429      -15.39032257442491       13.84735254980206
 C         -14.39543410061168      -14.31319025424633       13.18613303695926
 H         -14.45271369857451      -15.78383634391029       14.66182468460893
 H         -15.16801333296179      -13.72066841436948       12.77869870755261
61
 energy: -11.499765629651 gnorm: 0.000593759636 xtb: 6.6.1 (8d0f1dd)
 N         -21.00640438951143      -19.77114191393110       22.77225839950533
 C         -21.10785774460580      -18.70865603146476       21.73006555501015
 C         -19.90067189609238      -18.80300476599008       20.84521004608959
 C         -21.21176036118095      -17.31568048384604       22.34804524768021
 O         -18.79475933281597      -18.61913152757471       21.31271649358260
 C         -22.39492911597151      -17.15626694590856       23.23337754168702
 C         -23.72827105415389      -17.19335785298534       22.86582867743903
 N         -22.37976519489386      -16.97335979696221       24.58908168731669
 C         -23.69836398929558      -16.90368245386582       24.97062070815755
 N         -24.51273828220569      -17.03648303849433       23.94838278128300
 H         -21.85100117475685      -19.82327978569463       23.35735710513369
 H         -22.00649508454653      -18.89823045151277       21.12348753282370
 H         -20.30036591201308      -17.12214681979340       22.91926952134275
 H         -21.23671766982510      -16.55535334280815       21.56032723499534
 H         -21.55630084240055      -16.89324653223163       25.18531923526753
 H         -24.10381437161904      -17.33057035345049       21.86147601046011
 H         -24.03719262116591      -16.76047836051256       25.98863661960339
 H         -20.83714764088029      -20.68997193787283       22.32626420126700
 H         -20.19902189784314      -19.57498572560845       23.37514167800189
 N         -20.10328260141853      -19.13546241781705       19.52478623255566
 C         -18.98734388335499      -19.60819058181659       18.73242922062155
 C         -18.85328322839801      -18.75600039526235       17.49469848420775
 C         -19.13052778842319      -21.09657890371691       18.40947445327142
 O         -19.05447598826888      -19.18637790134536       16.37619172608671
 C         -19.37410723819388      -21.90296171798814       19.63616279198349
 C         -20.59934895008932      -22.21785823019119       20.19566324038599
 N         -18.43177117772231      -22.32589458897374       20.53169731341912
 C         -19.12696936182730      -22.87627810975917       21.58031571406897
 N         -20.42425972654829      -22.80045663123984       21.39451285528898
 H         -21.02627447478959      -19.39702910470629       19.17643306678095
 H         -18.08871880462289      -19.46505986639911       19.35212259193253
 H         -19.96134454936228      -21.22736465662330       17.70977257072544
 H         -18.23827900097590      -21.45869571240102       17.88967849004958
 H         -17.42135840428927      -22.20793925357781       20.45482787061609
 H         -21.56912269207050      -21.99873100037854       19.76966544224330
 H         -18.67430372014443      -23.29923163707576       22.46885711896422
 N         -18.53604991847778      -17.43455202865572       17.70544981111780
 C         -18.66158819787256      -16.45812412195844       16.63383261801214
 C         -17.42059884834333      -16.46865899270543       15.78679996666489
 C         -19.00714940788720      -15.06151138846224       17.17664352093520
 O         -16.48379866803616      -15.75859169537917       16.06916322259186
 C         -18.11913046119853      -14.64266109950758       18.33152538746646
 O         -18.23739904289492      -15.28695057015750       19.36786489763913
 O         -17.36563388834887      -13.69341611917805       18.14611607666862
 H         -18.46053852795866      -17.05989921469814       18.66084257979537
 H         -19.49309269194410      -16.81668594400933       16.00064099782031
 H         -18.92190770720469      -14.31673032259673       16.37766271362371
 H         -20.04444411326043      -15.04404677110776       17.52762739514369
 N         -17.44819831221099      -17.32631308421456       14.72527743369532
 C         -16.28967012976856      -17.49954648796551       13.87003510212707
 C         -15.91987622076539      -16.19083824234959       13.21482124039943
 C         -16.50184403889514      -18.59256341972490       12.83343155327238
 O         -16.44367714902115      -15.85132736965775       12.18702546993508
 H         -18.14499459064628      -18.07537968521243       14.68634884646610
 H         -15.45848083307514      -17.79359852387273       14.53589345707124
 H         -16.90720423941896      -19.47743494051671       13.31441805405166
 H         -17.22257287599675      -18.25907659526974       12.10662329035690
 N         -14.93742363855227      -15.39020476213957       13.84739610782889
 C         -14.39523455524543      -14.31311709443567       13.18625295565614
 H         -14.45286410539387      -15.78381151633942       14.66162798380934
 H         -15.16827767130566      -13.72082118010534       12.77852385800292
61
 energy: -11.499765884604 gnorm: 0.000192667173 xtb: 6.6.1 (8d0f1dd)
 N         -21.00648617430790      -19.77115679670061       22.77221541733400
 C         -21.10792381744048      -18.70865757578701       21.73003842773644
 C         -19.90074682646713      -18.80301847395997       20.84517689954469
 C         -21.21177361390158      -17.31568003829122       22.34804694496569
 O         -18.79481995507488      -18.61918936930698       21.31267496520889
 C         -22.39493060019998      -17.15624648797870       23.23338980701213
 C         -23.72827809853374      -17.19329146360125       22.86584655189335
 N         -22.37975170372949      -16.97337707365230       24.58909930149573
 C         -23.69834715890277      -16.90367354650358       24.97064630944970
 N         -24.51272921611148      -17.03641704939929       23.94841255376867
 H         -21.85107927050560      -19.82328148224747       23.35731829608578
 H         -22.00656446816234      -18.89818493878959       21.12346217487857