      -----------------------------------------------------------      
     |                   =====================                   |     
     |                           x T B                           |     
     |                   =====================                   |     
     |                         S. Grimme                         |     
     |          Mulliken Center for Theoretical Chemistry        |     
     |                    University of Bonn                     |     
      -----------------------------------------------------------      

   * xtb version 6.6.1 (8d0f1dd) compiled by 'conda@1efc2f54142f' on 2023-08-01

   xtb is free software: you can redistribute it and/or modify it under
   the terms of the GNU Lesser General Public License as published by
   the Free Software Foundation, either version 3 of the License, or
   (at your option) any later version.
   
   xtb is distributed in the hope that it will be useful,
   but WITHOUT ANY WARRANTY; without even the implied warranty of
   MERCHANTABILITY or FITNESS FOR A PARTICULAR PURPOSE.  See the
   GNU Lesser General Public License for more details.
   
   Cite this work as:
   * C. Bannwarth, E. Caldeweyher, S. Ehlert, A. Hansen, P. Pracht,
     J. Seibert, S. Spicher, S. Grimme, WIREs Comput. Mol. Sci., 2020, 11,
     e01493. DOI: 10.1002/wcms.1493
   
   for GFN2-xTB:
   * C. Bannwarth, S. Ehlert and S. Grimme., J. Chem. Theory Comput., 2019,
     15, 1652-1671. DOI: 10.1021/acs.jctc.8b01176
   for GFN1-xTB:
   * S. Grimme, C. Bannwarth, P. Shushkov, J. Chem. Theory Comput., 2017,
     13, 1989-2009. DOI: 10.1021/acs.jctc.7b00118
   for GFN0-xTB:
   * P. Pracht, E. Caldeweyher, S. Ehlert, S. Grimme, ChemRxiv, 2019, preprint.
     DOI: 10.26434/chemrxiv.8326202.v1
   for GFN-FF:
   * S. Spicher and S. Grimme, Angew. Chem. Int. Ed., 2020, 59, 15665-15673.
     DOI: 10.1002/anie.202004239
   
   for ALPB and GBSA implicit solvation:
   * S. Ehlert, M. Stahn, S. Spicher, S. Grimme, J. Chem. Theory Comput.,
     2021, 17, 4250-4261. DOI: 10.1021/acs.jctc.1c00471
   
   for DFT-D4:
   * E. Caldeweyher, C. Bannwarth and S. Grimme, J. Chem. Phys., 2017,
     147, 034112. DOI: 10.1063/1.4993215
   * E. Caldeweyher, S. Ehlert, A. Hansen, H. Neugebauer, S. Spicher,
     C. Bannwarth and S. Grimme, J. Chem. Phys., 2019, 150, 154122.
     DOI: 10.1063/1.5090222
   * E. Caldeweyher, J.-M. Mewes, S. Ehlert and S. Grimme, Phys. Chem. Chem. Phys.
     2020, 22, 8499-8512. DOI: 10.1039/D0CP00502A
   
   for sTDA-xTB:
   * S. Grimme and C. Bannwarth, J. Chem. Phys., 2016, 145, 054103.
     DOI: 10.1063/1.4959605
   
   in the mass-spec context:
   * V. Asgeirsson, C. Bauer and S. Grimme, Chem. Sci., 2017, 8, 4879.
     DOI: 10.1039/c7sc00601b
   * J. Koopman and S. Grimme, ACS Omega 2019, 4, 12, 15120-15133.
     DOI: 10.1021/acsomega.9b02011
   
   for metadynamics refer to:
   * S. Grimme, J. Chem. Theory Comput., 2019, 155, 2847-2862
     DOI: 10.1021/acs.jctc.9b00143
   
   for SPH calculations refer to:
   * S. Spicher and S. Grimme, J. Chem. Theory Comput., 2021, 17, 1701-1714
     DOI: 10.1021/acs.jctc.0c01306
   
   with help from (in alphabetical order)
   P. Atkinson, C. Bannwarth, F. Bohle, G. Brandenburg, E. Caldeweyher
   M. Checinski, S. Dohm, S. Ehlert, S. Ehrlich, I. Gerasimov, C. Hölzer
   A. Katbashev, J. Koopman, C. Lavigne, S. Lehtola, F. März, M. Müller,
   F. Musil, H. Neugebauer, J. Pisarek, C. Plett, P. Pracht, F. Pultar,
   J. Seibert, P. Shushkov, S. Spicher, M. Stahn, M. Steiner, T. Strunk,
   J. Stückrath, T. Rose, and J. Unsleber
   
 * started run on 2025/05/27 at 09:37:53.484     

           -------------------------------------------------
          |                Calculation Setup                |
           -------------------------------------------------

          program call               : xtb substructure_58.pdb --gfnff --input xtb_settings.inp --opt vtight --alpb water --verbose
          coordinate file            : substructure_58.pdb
          xtbhome directory          : /home/dargen3
          path for xtb               : /home/dargen3
          xcontrol input file        : xtb_settings.inp
          omp threads                :                     1

$$$$$$$$$$$$$$$$$$$$$$$$$$$$$$$$$$$$$$$$$$$$$$$$$$$$$$$$$$$$$$$$$$$$$$$$
 CONSTRAINTS & SCANS: DEBUG SECTION
$$$$$$$$$$$$$$$$$$$$$$$$$$$$$$$$$$$$$$$$$$$$$$$$$$$$$$$$$$$$$$$$$$$$$$$$
   ID    Z sym.   atoms
    1    6  C     1, 4, 5, 11, 12, 18, 19, 25, 26, 32
    2    8  O     2, 6, 13, 20, 27
    3    7  N     3, 10, 17, 24, 31
    4    1  H     7-9, 14-16, 21-23, 28-30, 33-35
> constrain
-> atoms: 1, 2, 3, 4, 5, 6, 7, 8, 9, 10, 11, 12, 13, 14, 15, 16, 18, 24, 25, 26, 27, 28, 29, 30, 31, 32, 33, 34, 35
--> 1: 1
--> 2: 2
--> 3: 3
--> 4: 4
--> 5: 5
--> 6: 6
--> 7: 7
--> 8: 8
--> 9: 9
--> 10: 10
--> 11: 11
--> 12: 12
--> 13: 13
--> 14: 14
--> 15: 15
--> 16: 16
--> 17: 18
--> 18: 24
--> 19: 25
--> 20: 26
--> 21: 27
--> 22: 28
--> 23: 29
--> 24: 30
--> 25: 31
--> 26: 32
--> 27: 33
--> 28: 34
--> 29: 35
-> force constant=1.0
$$$$$$$$$$$$$$$$$$$$$$$$$$$$$$$$$$$$$$$$$$$$$$$$$$$$$$$$$$$$$$$$$$$$$$$$
           -------------------------------------------------
          |                   Constraints                   |
           -------------------------------------------------

 * 29 constrained atom positions
   positions refering to input geometry

     #   Z                                   position/Å      displ./Å
     1   6 C     -4.7850004   -11.3490011     1.2660001     0.0000000
     2   8 O     -5.8460005   -10.7750010     1.1300001     0.0000000
     3   7 N     -3.6250003   -10.7650010     0.7890001     0.0000000
     4   6 C     -2.2890002   -11.3470011     0.7820001     0.0000000
     5   6 C     -1.7380002   -11.4500011    -0.6070001     0.0000000
     6   8 O     -2.1550002   -12.3120011    -1.3500001     0.0000000
     7   1 H     -3.7040003    -9.9140009     0.2360000     0.0000000
     8   1 H     -1.6310002   -10.7490010     1.4180001     0.0000000
     9   1 H     -2.3050002   -12.3550011     1.2120001     0.0000000
    10   7 N     -0.7770001   -10.5440010    -0.9980001     0.0000000
    11   6 C     -0.3730000   -10.4770010    -2.3880002     0.0000000
    12   6 C     -0.7920001    -9.1540008    -2.9880003     0.0000000
    13   8 O     -1.8720002    -8.7020008    -2.6680002     0.0000000
    14   1 H     -0.5980001    -9.6970009    -0.4560000     0.0000000
    15   1 H      0.7090001   -10.6140010    -2.4390002     0.0000000
    16   1 H     -0.8580001   -11.2900010    -2.9180003     0.0000000
    18   6 C      1.3240001    -8.8870008    -4.3620004     0.0000000
    24   7 N      2.7860003    -8.1040008    -6.2200006     0.0000000
    25   6 C      3.0050003    -7.6070007    -7.5660007     0.0000000
    26   6 C      3.1540003    -6.1010006    -7.5650007     0.0000000
    27   8 O      2.2410002    -5.4580005    -7.0880007     0.0000000
    28   1 H      3.5210003    -7.8850007    -5.5460005     0.0000000
    29   1 H      3.8590004    -8.1090008    -8.0130007     0.0000000
    30   1 H      2.1210002    -7.8670007    -8.1550008     0.0000000
    31   7 N      4.2560004    -5.4290005    -8.0710007     0.0000000
    32   6 C      5.4280005    -5.9890006    -8.7440008     0.0000000
    33   1 H      4.2050004    -4.4150004    -8.1300008     0.0000000
    34   1 H      6.3330006    -5.6040005    -8.2810008     0.0000000
    35   1 H      5.4520005    -7.0780007    -8.6160008     0.0000000

     applying 406 atom pairwise harmonic potentials
       applied force constant per pair:     0.0357143
     effective force constant per atom:     1.0000000
         constraining energy/grad norm:     0.0000000     0.0000000

     total constraint energy/grad norm:     0.0000000     0.0000000

          charge from pdb residues: 0

          entering GFN-FF setup routine... 35

          ==================== Thresholds ====================
          CN  :   150.00000
          rep :   500.00000
          disp:  2500.00000
          HB1 :   250.00000
          HB2 :   450.00000

          Pauling EN used:
          Z : 1  EN :  2.20
          Z : 6  EN :  2.55
          Z : 7  EN :  3.04
          Z : 8  EN :  3.44
          electric field strengths (au): 0.000

           ------------------------------------------------- 
          |           Force Field Initialization            |
           ------------------------------------------------- 

          distances ...
          ----------------------------------------
          generating topology and atomic info file ...
          pair mat ...
          computing topology distances matrix with Floyd-Warshall algo ...
          making topology EEQ charges ...
          #fragments for EEQ constrain from pdb file: 6
          ----------------------------------------
          generating topology and atomic info file ...
          pair mat ...
          computing topology distances matrix with Floyd-Warshall algo ...
          making topology EEQ charges ...
          #fragments for EEQ constrain from pdb file: 6
          rings ...
          # BATM   270
          # H in HB   15
          doing iterative Hueckel for 5 subsystem(s) ...
          iterative Hueckel run to get P ...
Hueckel system :  1 charge :   0 ndim/Nel :    3    3   eps(HOMO/LUMO)   -0.953512   -0.953512
Hueckel system :  2 charge :   0 ndim/Nel :    3    4   eps(HOMO/LUMO)   -0.911362   -0.911362
Hueckel system :  3 charge :   0 ndim/Nel :    3    4   eps(HOMO/LUMO)   -0.911922   -0.911922
Hueckel system :  4 charge :   0 ndim/Nel :    3    4   eps(HOMO/LUMO)   -0.910012   -0.910012
Hueckel system :  5 charge :   0 ndim/Nel :    4    5   eps(HOMO/LUMO)    1.305315    1.305315
WARNING: probably wrong pi occupation for system 5. Second attempt with Nel=Nel-1!
 at,nb,topo%hyb,Npiel:          26  C             3           2           1
 at,nb,topo%hyb,Npiel:          27  O             1           2           1
 at,nb,topo%hyb,Npiel:          31  N             3           3           2
 at,nb,topo%hyb,Npiel:          32  C             3           2           1

          eigenvalues
 #    :           1          2          3          4
 occ. :        2.000      1.987      0.013      0.000
 eps  :        -4.349     -2.183      1.305      3.389
Hueckel system :  5 charge :   0 ndim/Nel :    4    4   eps(HOMO/LUMO)   -2.182828    1.305315

  atom   neighbors  erfCN metchar sp-hybrid imet pi  qest     coordinates
    1   C      2    1.93   0.00        -2    0    1   0.120   -9.042340  -21.446502    2.392393
    2   O      1    0.98   0.00         2    0    1  -0.120  -11.047339  -20.361799    2.135391
    3   N      3    2.79   0.00        -3    0    1  -0.166   -6.850257  -20.342902    1.490994
    4   C      4    3.49   0.00         3    0    0   0.005   -4.325583  -21.442722    1.477766
    5   C      3    2.80   0.00         2    0    1   0.174   -3.284344  -21.637364   -1.147064
    6   O      1    0.98   0.00         2    0    1  -0.352   -4.072360  -23.266308   -2.551130
    7   H      1    0.98   0.00         0    0    0   0.153   -6.999546  -18.734745    0.445975
    8   H      1    0.97   0.00         0    0    0   0.093   -3.082143  -20.312666    2.679632
    9   H      1    0.97   0.00         0    0    0   0.093   -4.355819  -23.347566    2.290348
   10   N      3    2.79   0.00        -3    0    1  -0.168   -1.468317  -19.925272   -1.885947
   11   C      4    3.49   0.00         3    0    0   0.006   -0.704868  -19.798661   -4.512666
   12   C      3    2.79   0.00         2    0    1   0.175   -1.496663  -17.298553   -5.646502
   13   O      1    0.98   0.00         2    0    1  -0.352   -3.537567  -16.444397   -5.041789
   14   H      1    0.98   0.00         0    0    0   0.154   -1.130056  -18.324674   -0.861715
   15   H      1    0.97   0.00         0    0    0   0.092    1.339816  -20.057553   -4.609042
   16   H      1    0.97   0.00         0    0    0   0.092   -1.621385  -21.335008   -5.514221
   17   N      3    2.79   0.00        -3    0    1  -0.167    0.009449  -16.026767   -7.360483
   18   C      4    3.49   0.00         3    0    0   0.005    2.501997  -16.793996   -8.242985
   19   C      3    2.80   0.00         2    0    1   0.178    2.893171  -16.064562  -10.979309
   20   O      1    0.98   0.00         2    0    1  -0.353    1.131946  -16.176056  -12.440067
   21   H      1    0.98   0.00         0    0    0   0.151   -0.687860  -14.469633   -8.239206
   22   H      1    0.97   0.00         0    0    0   0.093    3.945748  -16.004091   -7.048678
   23   H      1    0.97   0.01         0    0    0   0.093    2.639947  -18.878364   -8.144720
   24   N      3    2.79   0.00        -3    0    1  -0.170    5.264777  -15.314341  -11.754096
   25   C      4    3.49   0.00         3    0    0   0.006    5.678627  -14.375147  -14.297668
   26   C      3    2.79   0.00         2    0    1   0.195    5.960196  -11.529219  -14.295778
   27   O      1    0.98   0.00         2    0    1  -0.357    4.234876  -10.314125  -13.394379
   28   H      1    0.98   0.00         0    0    0   0.147    6.653726  -14.900490  -10.480421
   29   H      1    0.97   0.00         0    0    0   0.090    7.292453  -15.323789  -15.142375
   30   H      1    0.97   0.00         0    0    0   0.090    4.008109  -14.866475  -15.410717
   31   N      3    2.79   0.00         3    0    1  -0.226    8.042674  -10.259323  -15.251980
   32   C      3    2.78   0.00         2    0    1  -0.008   10.257433  -11.317570  -16.523765
   33   H      1    0.98   0.00         0    0    0   0.123    7.946298   -8.343141  -15.363473
   34   H      1    0.97   0.00         0    0    0   0.055   11.967636  -10.590025  -15.648822
   35   H      1    0.97   0.00         0    0    0   0.055   10.302787  -13.375482  -16.281880

molecular fragment  # atoms  topo charge
       1             2            -0.000
       2             7            -0.000
       3             7            -0.000
       4             7             0.000
       5             7             0.000
       6             5            -0.000


          #atoms :   35
          #bonds :   34

 bond atoms        type  in ring    R      R0    piBO    fqq  kbond(tot)  alp
 O  C     2    1      2    0     1.214   0.995   0.799   1.047  -0.252   0.584
 N  C     3    1      2    0     1.384   1.214   0.504   1.047  -0.235   0.524
 C  N     4    3      1    0     1.457   1.326 -99.000   1.033  -0.151   0.496
 C  C     5    4      1    0     1.498   1.332 -99.000   1.013  -0.162   0.475
 O  C     6    5      2    0     1.212   1.031   0.856   1.047  -0.262   0.584
 H  N     7    3      1    0     1.018   0.890 -99.000   1.047  -0.176   0.551
 H  C     8    4      1    0     1.093   0.976 -99.000   1.018  -0.164   0.482
 H  C     9    4      1    0     1.096   0.976 -99.000   1.018  -0.164   0.482
 N  C    10    5      2    0     1.377   1.263   0.503   1.047  -0.234   0.524
 C  N    11   10      1    0     1.449   1.326 -99.000   1.036  -0.151   0.496
 C  C    12   11      1    0     1.512   1.332 -99.000   1.011  -0.162   0.475
 O  C    13   12      2    0     1.214   1.031   0.856   1.047  -0.262   0.584
 H  N    14   10      1    0     1.021   0.890 -99.000   1.047  -0.176   0.551
 H  C    15   11      1    0     1.092   0.977 -99.000   1.016  -0.164   0.482
 H  C    16   11      1    0     1.085   0.977 -99.000   1.016  -0.164   0.482
 N  C    17   12      2    0     1.382   1.263   0.503   1.047  -0.234   0.524
 C  N    18   17      1    0     1.457   1.326 -99.000   1.033  -0.151   0.496
 C  C    19   18      1    0     1.513   1.332 -99.000   1.014  -0.162   0.475
 O  C    20   19      2    0     1.212   1.031   0.856   1.047  -0.262   0.584
 H  N    21   17      1    0     1.016   0.890 -99.000   1.047  -0.176   0.551
 H  C    22   18      1    0     1.076   0.976 -99.000   1.018  -0.164   0.482
 H  C    23   18      1    0     1.107   0.976 -99.000   1.018  -0.164   0.482
 N  C    24   19      2    0     1.379   1.263   0.504   1.047  -0.234   0.524
 C  N    25   24      1    0     1.451   1.326 -99.000   1.034  -0.151   0.496
 C  C    26   25      1    0     1.513   1.332 -99.000   1.011  -0.162   0.475
 O  C    27   26      2    0     1.214   1.018   0.930   1.047  -0.274   0.584
 H  N    28   24      1    0     1.021   0.890 -99.000   1.047  -0.176   0.551
 H  C    29   25      1    0     1.087   0.977 -99.000   1.018  -0.164   0.482
 H  C    30   25      1    0     1.094   0.976 -99.000   1.018  -0.164   0.482
 N  C    31   26      2    0     1.386   1.291   0.346   1.047  -0.203   0.524
 C  N    32   31      2    0     1.463   1.189   0.906   1.006  -0.302   0.524
 H  N    33   31      1    0     1.017   0.890 -99.000   1.047  -0.176   0.551
 H  C    34   32      1    0     1.087   0.950 -99.000   1.029  -0.179   0.490
 H  C    35   32      1    0     1.097   0.949 -99.000   1.029  -0.179   0.490
          #angl  :   55

 angle atoms        phi0    phi      FC  pi rings
    1    3    2   145.000 119.642   0.082 F   0
    3    4    1   115.000 126.994   0.411 F   0
    3    7    1   115.000 118.366   0.335 F   0
    3    7    4   104.000 113.729   0.182 F   0
    4    5    3   109.500 111.664   0.307 F   0
    4    8    3   109.500 109.302   0.253 F   0
    4    8    5   109.500 110.837   0.251 F   0
    4    9    3   109.500 110.612   0.253 F   0
    4    9    5   109.500 107.815   0.251 F   0
    4    9    8   108.600 106.477   0.209 F   0
    5    6    4   120.000 119.395   0.178 F   0
    5   10    4   120.000 118.337   0.243 F   0
    5   10    6   120.000 122.265   0.176 F   0
   10   11    5   115.000 119.817   0.409 F   0
   10   14    5   115.000 121.138   0.333 F   0
   10   14   11   104.000 114.950   0.182 F   0
   11   12   10   109.500 110.113   0.307 F   0
   11   15   10   109.500 108.379   0.253 F   0
   11   15   12   109.500 111.463   0.252 F   0
   11   16   10   109.500 108.018   0.253 F   0
   11   16   12   109.500 109.753   0.252 F   0
   11   16   15   108.600 109.036   0.209 F   0
   12   13   11   120.000 117.895   0.178 F   0
   12   17   11   120.000 121.778   0.243 F   0
   12   17   13   120.000 120.314   0.176 F   0
   17   18   12   115.000 126.629   0.409 F   0
   17   21   12   115.000 119.076   0.333 F   0
   17   21   18   104.000 114.097   0.182 F   0
   18   19   17   109.500 111.074   0.307 F   0
   18   22   17   109.500 110.260   0.253 F   0
   18   22   19   109.500 111.464   0.251 F   0
   18   23   17   109.500 108.809   0.253 F   0
   18   23   19   109.500 106.874   0.251 F   0
   18   23   22   108.600 108.225   0.209 F   0
   19   20   18   120.000 119.519   0.178 F   0
   19   24   18   120.000 118.861   0.242 F   0
   19   24   20   120.000 121.616   0.176 F   0
   24   25   19   115.000 120.779   0.409 F   0
   24   28   19   115.000 121.383   0.333 F   0
   24   28   25   104.000 115.475   0.182 F   0
   25   26   24   109.500 110.793   0.307 F   0
   25   29   24   109.500 109.988   0.253 F   0
   25   29   26   109.500 112.493   0.251 F   0
   25   30   24   109.500 107.223   0.253 F   0
   25   30   26   109.500 108.453   0.251 F   0
   25   30   29   108.600 107.689   0.209 F   0
   26   27   25   120.000 116.948   0.177 F   0
   26   31   25   120.000 124.082   0.241 F   0
   26   31   27   120.000 118.970   0.174 F   0
   31   32   26   113.000 128.256   0.042 F   0
   31   33   26   113.000 117.685   0.211 F   0
   31   33   32   113.000 113.276   0.105 F   0
   32   34   31   120.000 109.601   0.204 F   0
   32   35   31   120.000 110.117   0.204 F   0
   32   35   34   120.000 106.484   0.167 F   0
 torsion atoms        nrot   rings    phi0    phi      FC
    3    1    4    2   2      0     180.000 175.420   0.765
    3    1    7    2   2      0     180.000   7.085   1.135
    4    3    5    1   3      0     180.000 120.522   0.024
    4    3    5    7   3      0     180.000  48.272   0.032
    4    3    8    1   3      0     180.000 116.477   0.034
    4    3    8    7   3      0     180.000  74.729   0.045
    4    3    9    1   3      0     180.000   0.447   0.034
    4    3    9    7   3      0     180.000 168.346   0.045
    5    4    6    3   3      0     180.000  74.995   0.066
    5    4    6    8   3      0     180.000 162.881   0.115
    5    4    6    9   3      0     180.000  46.708   0.115
    5    4   10    3   3      0     180.000 104.374   0.041
    5    4   10    8   3      0     180.000  17.750   0.072
    5    4   10    9   3      0     180.000 133.922   0.072
   10    5   11    4   2      0     180.000 170.373   0.615
   10    5   11    6   2      0     180.000   8.977   0.833
   10    5   14    4   2      0     180.000  14.275   0.912
   10    5   14    6   2      0     180.000 165.076   1.236
   11   10   12    5   3      0     180.000 113.425   0.022
   11   10   12   14   3      0     180.000  44.086   0.032
   11   10   15    5   3      0     180.000 124.416   0.032
   11   10   15   14   3      0     180.000  78.072   0.045
   11   10   16    5   3      0     180.000   6.415   0.032
   11   10   16   14   3      0     180.000 163.927   0.045
   12   11   13   10   3      0     180.000  39.035   0.066
   12   11   13   15   3      0     180.000 159.350   0.115
   12   11   13   16   3      0     180.000  79.748   0.115
   12   11   17   10   3      0     180.000 142.297   0.041
   12   11   17   15   3      0     180.000  21.981   0.072
   12   11   17   16   3      0     180.000  98.920   0.072
   17   12   18   11   2      0     180.000   2.140   0.614
   17   12   18   13   2      0     180.000 179.223   0.832
   17   12   21   11   2      0     180.000 172.419   0.911
   17   12   21   13   2      0     180.000   6.218   1.235
   18   17   19   12   3      0     180.000 145.431   0.022
   18   17   19   21   3      0     180.000  29.361   0.032
   18   17   22   12   3      0     180.000  90.496   0.032
   18   17   22   21   3      0     180.000  94.712   0.045
   18   17   23   12   3      0     180.000  28.052   0.032
   18   17   23   21   3      0     180.000 146.740   0.045
   19   18   20   17   3      0     180.000  36.202   0.066
   19   18   20   22   3      0     180.000 159.587   0.115
   19   18   20   23   3      0     180.000  82.350   0.115
   19   18   24   17   3      0     180.000 144.538   0.041
   19   18   24   22   3      0     180.000  21.153   0.072
   19   18   24   23   3      0     180.000  96.910   0.072
   24   19   25   18   2      0     180.000 174.247   0.620
   24   19   25   20   2      0     180.000   6.509   0.840
   24   19   28   18   2      0     180.000  12.489   0.920
   24   19   28   20   2      0     180.000 168.267   1.247
   25   24   26   19   3      0     180.000 104.001   0.022
   25   24   26   28   3      0     180.000  58.780   0.032
   25   24   29   19   3      0     180.000 130.999   0.032
   25   24   29   28   3      0     180.000  66.219   0.045
   25   24   30   19   3      0     180.000  14.175   0.032
   25   24   30   28   3      0     180.000 176.957   0.045
   26   25   27   24   3      0     180.000  56.720   0.066
   26   25   27   29   3      0     180.000 179.708   0.115
   26   25   27   30   3      0     180.000  60.705   0.115
   26   25   31   24   3      0     180.000 123.330   0.041
   26   25   31   29   3      0     180.000   0.241   0.072
   26   25   31   30   3      0     180.000 119.244   0.072
   31   26   32   25   2      0     180.000   3.239   0.343
   31   26   32   27   2      0     180.000 176.709   0.465
   31   26   33   25   2      0     180.000 172.344   0.489
   31   26   33   27   2      0     180.000   7.604   0.663
   32   31   34   26   2      0     180.000 129.475   1.385
   32   31   34   33   2      0     180.000  61.023   1.974
   32   31   35   26   2      0     180.000  12.654   1.385
   32   31   35   33   2      0     180.000 177.844   1.974
 out-of-plane atoms          phi0    phi      FC
    3    7    1    4          0.000   9.293   0.133
    5    6   10    4          0.000   0.572  23.920
   10   14    5   11          0.000  20.581   0.125
   12   13   17   11          0.000  -1.159  23.974
   17   21   12   18          0.000   4.364   0.130
   19   20   24   18          0.000  -0.662  24.122
   24   28   19   25          0.000  15.601   0.116
   26   27   31   25          0.000  -0.043  28.543
   31   33   26   32          0.000   8.535  -0.052
   32   34   35   31          0.000  55.412   0.552
          #tors  :   80
          #nmol  :   6
          #optfrag :   6

 GFN-FF setup done.

           ------------------------------------------------- 
          |                   G F N - F F                   |
          |          A general generic force-field          |
          |                  Version 1.0.3                  | 
           ------------------------------------------------- 
      * Solvation model:               ALPB
        Solvent                        water
        Parameter file                 internal GFN-FF/ALPB
        Dielectric constant                8.0200E+01
        Reference state                gsolv [1 M gas/solution]
        Free energy shift                  3.6494E-04 Eh       2.2900E-01 kcal/mol
        Temperature                        2.9815E+02 K
        Density                            1.0000E+00 kg/L
        Solvent mass                       1.8000E+01 g/mol
        Interaction kernel             P16
        Born radius scaling (c1)           1.5056E+00
        Born radii integrator          GBOBC
        Born offset                        0.0000E+00 a0       0.0000E+00 AA
        H-bond correction              true
        Ion screening                  false
        Surface tension                    1.0000E-05 Eh       1.5569E+01 dyn/cm
        Grid points                               230 per atom
          Number of HB bonds (bound hydrogen)     310
          Number of HB bonds (unbound hydrogen)   42
          Number of XB bonds                      0

 E+G (total)                   0 d,  0 h,  0 min,  0.001 sec
 distance/D3 list               ...        0 min,  0.000 sec (  0.270%)
 non bonded repulsion           ...        0 min,  0.000 sec (  2.244%)
 dCN                            ...        0 min,  0.000 sec (  2.935%)
 EEQ energy and q               ...        0 min,  0.000 sec (  4.152%)
 D3                             ...        0 min,  0.000 sec (  9.020%)
 EEQ gradient                   ...        0 min,  0.000 sec (  4.343%)
 bonds                          ...        0 min,  0.000 sec (  0.914%)
 bend and torsion               ...        0 min,  0.000 sec (  4.040%)
 bonded ATM                     ...        0 min,  0.000 sec (  1.536%)
 HB/XB (incl list setup)        ...        0 min,  0.000 sec (  8.598%)
 GBSA                           ...        0 min,  0.000 sec ( 64.130%)

         :::::::::::::::::::::::::::::::::::::::::::::::::::::
         ::                     SUMMARY                     ::
         :::::::::::::::::::::::::::::::::::::::::::::::::::::
         :: total energy              -6.227959847749 Eh    ::
         :: total w/o Gsolv           -6.189319886189 Eh    ::
         :: total w/o Gsasa/hb        -6.223399917197 Eh    ::
         :: gradient norm              0.187148950657 Eh/a0 ::
         ::.................................................::
         :: bond energy               -6.274063469715 Eh    ::
         :: angle energy               0.029434230129 Eh    ::
         :: torsion energy             0.013649927900 Eh    ::
         :: repulsion energy           0.379891196327 Eh    ::
         :: electrostat energy        -0.308296880149 Eh    ::
         :: dispersion energy         -0.022552322665 Eh    ::
         :: HB energy                 -0.000648623211 Eh    ::
         :: XB energy                  0.000000000000 Eh    ::
         :: bonded atm energy         -0.006733944805 Eh    ::
         :: external energy            0.000000000000 Eh    ::
         :: -> Gsolv                  -0.038639961560 Eh    ::
         ::    -> Gborn               -0.034080031008 Eh    ::
         ::    -> Gsasa                0.010063397795 Eh    ::
         ::    -> Ghb                 -0.014988267602 Eh    ::
         ::    -> Gshift               0.000364939255 Eh    ::
         :: add. restraining           0.000000000000 Eh    ::
         :: total charge               0.000000000000 e     ::
         ::.................................................::
         :: atomisation energy         0.000000000000 Eh    ::
         :::::::::::::::::::::::::::::::::::::::::::::::::::::

      ----------------------------------------------------------- 
     |                   =====================                   |
     |                        A N C O P T                        |
     |                   =====================                   |
     |               Approximate Normal Coordinate               |
     |                Rational Function Optimizer                |
      ----------------------------------------------------------- 

          ...................................................
          :                      SETUP                      :
          :.................................................:
          :   optimization level         verytight          :
          :   max. optcycles                    10          :
          :   ANC micro-cycles                  10          :
          :   degrees of freedom                99          :
          :.................................................:
          :   RF solver                   davidson          :
          :   write xtbopt.log                true          :
          :   linear?                        false          :
          :   energy convergence         0.1000000E-06 Eh   :
          :   grad. convergence          0.2000000E-03 Eh/α :
          :   maxmium RF displ.          1.0000000          :
          :   Hlow (freq-cutoff)         0.1000000E-01      :
          :   Hmax (freq-cutoff)         5.0000000          :
          :   S6 in model hess.         20.0000000          :
          ...................................................

generating ANC from model Hessian ...
Using GFN-FF Lindh-Hessian
 Shifting diagonal of input Hessian by    0.0000000000000000     
 Lowest  eigenvalues of input Hessian
    0.000000    0.000000    0.000000    0.000000    0.000000    0.000000
    0.015279    0.017566    0.019158    0.028041    0.046657    0.071188
    0.073461    0.086708    0.093150    0.113302    0.115355    0.123822
 Highest eigenvalues
    3.314243    3.828697    3.850404    3.928020    4.067348    4.217420


........................................................................
.............................. CYCLE    1 ..............................
........................................................................
     iter. time                 ...        0 min,  0.001 sec
 * total energy  :    -6.2279598 Eh     change        0.0000000E+00 Eh
   gradient norm :     0.1871490 Eh/α   predicted     0.0000000E+00 (    NaN%)
   displ. norm   :     0.1149108 α      lambda       -0.1559180E-01
   maximum displ.:     0.0372432 α      in ANC's #50, #89, #39, ...

........................................................................
.............................. CYCLE    2 ..............................
........................................................................
     iter. time                 ...        0 min,  0.001 sec
 * total energy  :    -6.2385648 Eh     change       -0.1060494E-01 Eh
   gradient norm :     0.0728895 Eh/α   predicted    -0.7898894E-02 ( -25.52%)
   displ. norm   :     0.0744351 α      lambda       -0.4115747E-02
   maximum displ.:     0.0283557 α      in ANC's #50, #17, #89, ...

........................................................................
.............................. CYCLE    3 ..............................
........................................................................
     iter. time                 ...        0 min,  0.001 sec
 * total energy  :    -6.2408408 Eh     change       -0.2275968E-02 Eh
   gradient norm :     0.0218520 Eh/α   predicted    -0.2069381E-02 (  -9.08%)
   displ. norm   :     0.0289499 α      lambda       -0.3908148E-03
   maximum displ.:     0.0109086 α      in ANC's #33, #31, #15, ...

........................................................................
.............................. CYCLE    4 ..............................
........................................................................
     iter. time                 ...        0 min,  0.001 sec
 * total energy  :    -6.2411318 Eh     change       -0.2910858E-03 Eh
   gradient norm :     0.0129249 Eh/α   predicted    -0.1955750E-03 ( -32.81%)
   displ. norm   :     0.0384651 α      lambda       -0.2767326E-03
   maximum displ.:     0.0153591 α      in ANC's #33, #31, #11, ...

........................................................................
.............................. CYCLE    5 ..............................
........................................................................
     iter. time                 ...        0 min,  0.000 sec
 * total energy  :    -6.2412915 Eh     change       -0.1596919E-03 Eh
   gradient norm :     0.0053284 Eh/α   predicted    -0.1385757E-03 ( -13.22%)
   displ. norm   :     0.0137174 α      lambda       -0.3357973E-04
   maximum displ.:     0.0056239 α      in ANC's #33, #3, #31, ...

........................................................................
.............................. CYCLE    6 ..............................
........................................................................
     iter. time                 ...        0 min,  0.000 sec
 * total energy  :    -6.2413165 Eh     change       -0.2496162E-04 Eh
   gradient norm :     0.0040707 Eh/α   predicted    -0.1679815E-04 ( -32.70%)
   displ. norm   :     0.0152730 α      lambda       -0.2818746E-04
   maximum displ.:     0.0062563 α      in ANC's #33, #22, #31, ...

........................................................................
.............................. CYCLE    7 ..............................
........................................................................
     iter. time                 ...        0 min,  0.000 sec
 * total energy  :    -6.2413339 Eh     change       -0.1741612E-04 Eh
   gradient norm :     0.0024591 Eh/α   predicted    -0.1409993E-04 ( -19.04%)
   displ. norm   :     0.0060085 α      lambda       -0.6030600E-05
   maximum displ.:     0.0020652 α      in ANC's #22, #33, #4, ...

........................................................................
.............................. CYCLE    8 ..............................
........................................................................
     iter. time                 ...        0 min,  0.000 sec
 * total energy  :    -6.2413380 Eh     change       -0.4115410E-05 Eh
   gradient norm :     0.0013205 Eh/α   predicted    -0.3034518E-05 ( -26.26%)
   displ. norm   :     0.0065008 α      lambda       -0.2334658E-05
   maximum displ.:     0.0024401 α      in ANC's #4, #3, #11, ...

........................................................................
.............................. CYCLE    9 ..............................
........................................................................
     iter. time                 ...        0 min,  0.000 sec
 * total energy  :    -6.2413395 Eh     change       -0.1520350E-05 Eh
   gradient norm :     0.0007628 Eh/α   predicted    -0.1187402E-05 ( -21.90%)
   displ. norm   :     0.0019013 α      lambda       -0.3468286E-06
   maximum displ.:     0.0007090 α      in ANC's #3, #33, #22, ...

........................................................................
.............................. CYCLE   10 ..............................
........................................................................
     iter. time                 ...        0 min,  0.001 sec
 * total energy  :    -6.2413399 Eh     change       -0.3923407E-06 Eh
   gradient norm :     0.0003712 Eh/α   predicted    -0.1918573E-06 ( -51.10%)
   displ. norm   :     0.0025273 α      lambda       -0.2170395E-06
   maximum displ.:     0.0011692 α      in ANC's #4, #2, #34, ...

   *** FAILED TO CONVERGE GEOMETRY OPTIMIZATION IN 10 ITERATIONS ***


 ANCopt (total)                0 d,  0 h,  0 min,  0.007 sec
 optimizer setup                ...        0 min,  0.000 sec (  0.804%)
 model hessian                  ...        0 min,  0.000 sec (  3.472%)
 ANC generation                 ...        0 min,  0.001 sec (  8.431%)
 coordinate transformation      ...        0 min,  0.000 sec (  0.484%)
 single point calculation       ...        0 min,  0.006 sec ( 74.210%)
 optimization log               ...        0 min,  0.000 sec (  6.127%)
 hessian update                 ...        0 min,  0.000 sec (  0.690%)
 rational function              ...        0 min,  0.000 sec (  3.390%)

================
 final structure:
================
ATOM      1  C   GLY A  10      -4.770 -11.302   1.291  1.00  0.00           C  
ATOM      2  O   GLY A  10      -5.855 -10.815   1.112  1.00  0.00           O  
ATOM      3  N   GLY A  11      -3.628 -10.763   0.790  1.00  0.00           N  
ATOM      4  CA  GLY A  11      -2.287 -11.351   0.783  1.00  0.00           C  
ATOM      5  C   GLY A  11      -1.738 -11.449  -0.606  1.00  0.00           C  
ATOM      6  O   GLY A  11      -2.154 -12.312  -1.349  1.00  0.00           O  
ATOM      7  H   GLY A  11      -3.704  -9.913   0.234  1.00  0.00           H  
ATOM      8  HA2 GLY A  11      -1.630 -10.750   1.418  1.00  0.00           H  
ATOM      9  HA3 GLY A  11      -2.310 -12.356   1.210  1.00  0.00           H  
ATOM     10  N   GLY A  12      -0.776 -10.544  -0.998  1.00  0.00           N  
ATOM     11  CA  GLY A  12      -0.373 -10.469  -2.384  1.00  0.00           C  
ATOM     12  C   GLY A  12      -0.792  -9.155  -2.989  1.00  0.00           C  
ATOM     13  O   GLY A  12      -1.871  -8.701  -2.667  1.00  0.00           O  
ATOM     14  H   GLY A  12      -0.597  -9.697  -0.456  1.00  0.00           H  
ATOM     15  HA2 GLY A  12       0.709 -10.616  -2.440  1.00  0.00           H  
ATOM     16  HA3 GLY A  12      -0.858 -11.291  -2.917  1.00  0.00           H  
ATOM     17  N   GLY A  13       0.005  -8.482  -3.896  1.00  0.00           N  
ATOM     18  CA  GLY A  13       1.318  -8.902  -4.375  1.00  0.00           C  
ATOM     19  C   GLY A  13       1.531  -8.502  -5.810  1.00  0.00           C  
ATOM     20  O   GLY A  13       0.600  -8.563  -6.584  1.00  0.00           O  
ATOM     21  H   GLY A  13      -0.365  -7.657  -4.362  1.00  0.00           H  
ATOM     22  HA2 GLY A  13       2.087  -8.468  -3.730  1.00  0.00           H  
ATOM     23  HA3 GLY A  13       1.398  -9.990  -4.309  1.00  0.00           H  
ATOM     24  N   GLY A  14       2.785  -8.106  -6.221  1.00  0.00           N  
ATOM     25  CA  GLY A  14       3.001  -7.600  -7.565  1.00  0.00           C  
ATOM     26  C   GLY A  14       3.144  -6.095  -7.565  1.00  0.00           C  
ATOM     27  O   GLY A  14       2.244  -5.454  -7.083  1.00  0.00           O  
ATOM     28  H   GLY A  14       3.521  -7.890  -5.548  1.00  0.00           H  
ATOM     29  HA2 GLY A  14       3.857  -8.110  -8.015  1.00  0.00           H  
ATOM     30  HA3 GLY A  14       2.119  -7.867  -8.156  1.00  0.00           H  
ATOM     31  N   GLY A  15       4.282  -5.463  -8.098  1.00  0.00           N  
ATOM     32  CA  GLY A  15       5.425  -5.962  -8.695  1.00  0.00           C  
ATOM     33  H   GLY A  15       4.209  -4.427  -8.130  1.00  0.00           H  
ATOM     34  HA2 GLY A  15       6.342  -5.602  -8.278  1.00  0.00           H  
ATOM     35  HA3 GLY A  15       5.434  -7.061  -8.637  1.00  0.00           H  
END

 Bond Distances (Angstroems)
 ---------------------------
C1-O2=1.2022         C1-N3=1.3581         O2-C1=1.2022         N3-C1=1.3581         N3-C4=1.4640         N3-H7=1.0188         
C4-N3=1.4640         C4-C5=1.4967         C4-H8=1.0948         C4-H9=1.0918         C5-C4=1.4967         C5-O6=1.2126         
C5-N10=1.3771        O6-C5=1.2126         H7-N3=1.0188         H8-C4=1.0948         H9-C4=1.0918         N10-C5=1.3771        
N10-C11=1.4458       N10-H14=1.0216       C11-N10=1.4458       C11-C12=1.5059       C11-H15=1.0928       C11-H16=1.0937       
C12-C11=1.5059       C12-O13=1.2140       C12-N17=1.3831       O13-C12=1.2140       H14-N10=1.0216       H15-C11=1.0928       
H16-C11=1.0937       N17-C12=1.3831       N17-C18=1.4596       N17-H21=1.0166       C18-N17=1.4596       C18-C19=1.5044       
C18-H22=1.0940       C18-H23=1.0925       C19-C18=1.5044       C19-O20=1.2119       C19-N24=1.3783       O20-C19=1.2119       
H21-N17=1.0166       H22-C18=1.0940       H23-C18=1.0925       N24-C19=1.3783       N24-C25=1.4517       N24-H28=1.0201       
C25-N24=1.4517       C25-C26=1.5124       C25-H29=1.0932       C25-H30=1.0950       C26-C25=1.5124       C26-O27=1.2049       
C26-N31=1.4067       O27-C26=1.2049       H28-N24=1.0201       H29-C25=1.0932       H30-C25=1.0950       N31-C26=1.4067       
N31-C32=1.3826       N31-H33=1.0387       C32-N31=1.3826       C32-H34=1.0702       C32-H35=1.1005       H33-N31=1.0387       
H34-C32=1.0702       H35-C32=1.1005       
 C  H  Rav=1.0919 sigma=0.0076  Rmin=1.0702  Rmax=1.1005    10
 C  C  Rav=1.5049 sigma=0.0056  Rmin=1.4967  Rmax=1.5124     4
 N  H  Rav=1.0232 sigma=0.0080  Rmin=1.0166  Rmax=1.0387     5
 N  C  Rav=1.4107 sigma=0.0383  Rmin=1.3581  Rmax=1.4640    10
 O  C  Rav=1.2091 sigma=0.0047  Rmin=1.2022  Rmax=1.2140     5

 selected bond angles (degree)
 --------------------
N3-C1-O2=122.90                C4-N3-C1=127.78                H7-N3-C1=117.97                H7-N3-C4=113.64                
C5-C4-N3=111.55                H8-C4-N3=109.04                H8-C4-C5=110.72                H9-C4-N3=110.41                
H9-C4-C5=108.11                H9-C4-H8=106.91                O6-C5-C4=119.27                N10-C5-C4=118.53               
N10-C5-O6=122.19               C11-N10-C5=120.15              H14-N10-C5=121.07              H14-N10-C11=114.62             

 selected dihedral angles (degree)
 ---------------------------------
C4-N3-C1-O2=189.11            H7-N3-C1-O2=359.54            C5-C4-N3-C1=122.96            C5-C4-N3-H7=312.19            
H8-C4-N3-C1=245.56            H8-C4-N3-H7= 74.79            H9-C4-N3-C1=  2.73            H9-C4-N3-H7=191.96            
O6-C5-C4-N3=284.65            O6-C5-C4-H8=163.02            O6-C5-C4-H9= 46.22            N10-C5-C4-N3=104.26           
N10-C5-C4-H8=342.63           N10-C5-C4-H9=225.84           C11-N10-C5-C4=189.69          C11-N10-C5-O6=  9.29          
H14-N10-C5-C4=345.53          H14-N10-C5-O6=165.13          
           -------------------------------------------------
          |                Final Singlepoint                |
           -------------------------------------------------
         :::::::::::::::::::::::::::::::::::::::::::::::::::::
         ::                     SUMMARY                     ::
         :::::::::::::::::::::::::::::::::::::::::::::::::::::
         :: total energy              -6.241340196380 Eh    ::
         :: total w/o Gsolv           -6.202996988118 Eh    ::
         :: total w/o Gsasa/hb        -6.237040994510 Eh    ::
         :: gradient norm              0.000213181913 Eh/a0 ::
         ::.................................................::
         :: bond energy               -6.297935133939 Eh    ::
         :: angle energy               0.027455306142 Eh    ::
         :: torsion energy             0.014950804413 Eh    ::
         :: repulsion energy           0.384984378617 Eh    ::
         :: electrostat energy        -0.308708891480 Eh    ::
         :: dispersion energy         -0.022558280111 Eh    ::
         :: HB energy                 -0.000641820073 Eh    ::
         :: XB energy                  0.000000000000 Eh    ::
         :: bonded atm energy         -0.006459838161 Eh    ::
         :: external energy            0.000000000000 Eh    ::
         :: -> Gsolv                  -0.038343208261 Eh    ::
         ::    -> Gborn               -0.034044006391 Eh    ::
         ::    -> Gsasa                0.010127922153 Eh    ::
         ::    -> Ghb                 -0.014792063278 Eh    ::
         ::    -> Gshift               0.000364939255 Eh    ::
         :: add. restraining           0.005916486472 Eh    ::
         :: total charge              -0.000000000000 e     ::
         ::.................................................::
         :: atomisation energy         0.000000000000 Eh    ::
         :::::::::::::::::::::::::::::::::::::::::::::::::::::

           -------------------------------------------------
          |                Property Printout                |
           -------------------------------------------------
           -------------------------------------------------
          |                Geometry Summary                 |
           -------------------------------------------------

      molecular mass/u    :      285.2570109
   center of mass at/Å    :       -0.0044866      -8.9882567      -3.6499452
  moments of inertia/u·Å² :        0.3941985E+03   0.6570607E+04   0.6721985E+04
rotational constants/cm⁻¹ :        0.4276432E-01   0.2565613E-02   0.2507836E-02

 * 29 selected distances

     #   Z          #   Z                                           value/Å
     1   6  C       3   7  N                                      1.3580851
     3   7  N       4   6  C                                      1.4639886 (max)
     5   6  C       6   8  O                                      1.2126221
     3   7  N       7   1  H                                      1.0188034
     4   6  C       8   1  H                                      1.0948429
     4   6  C       9   1  H                                      1.0918226
     5   6  C      10   7  N                                      1.3770975
    10   7  N      11   6  C                                      1.4457836
    12   6  C      13   8  O                                      1.2140274
    10   7  N      14   1  H                                      1.0216244
    11   6  C      15   1  H                                      1.0928387
    11   6  C      16   1  H                                      1.0936960
    12   6  C      17   7  N                                      1.3831025
    17   7  N      18   6  C                                      1.4595700
    19   6  C      20   8  O                                      1.2119494
    17   7  N      21   1  H                                      1.0165814 (min)
    18   6  C      22   1  H                                      1.0940364
    18   6  C      23   1  H                                      1.0925303
    19   6  C      24   7  N                                      1.3783265
    24   7  N      25   6  C                                      1.4516818
    26   6  C      27   8  O                                      1.2049119
    24   7  N      28   1  H                                      1.0201267
    25   6  C      29   1  H                                      1.0932254
    25   6  C      30   1  H                                      1.0949915
    26   6  C      31   7  N                                      1.4067073
    31   7  N      32   6  C                                      1.3826012
    31   7  N      33   1  H                                      1.0387325
    32   6  C      34   1  H                                      1.0701703
    32   6  C      35   1  H                                      1.1005498

 * 4 distinct bonds (by element types)

   Z      Z             #   av. dist./Å        max./Å        min./Å
   1 H    6 C          10     1.0918704     1.1005498     1.0701703
   1 H    7 N           5     1.0231737     1.0387325     1.0165814
   6 C    7 N          10     1.4106944     1.4639886     1.3580851
   6 C    8 O           4     1.2108777     1.2140274     1.2049119


optimized geometry written to: xtbopt.pdb


           -------------------------------------------------
          | TOTAL ENERGY               -6.241340196380 Eh   |
          | GRADIENT NORM               0.000213181913 Eh/α |
           -------------------------------------------------
########################################################################
[WARNING] Runtime exception occurred
-1- gfnff_setup: Could not read topology file.
########################################################################

------------------------------------------------------------------------
 unit  open   action     filename
   10 false : read       xtb_settings.inp
   10 false : read       substructure_58.pdb
   10 false : read       xtb_settings.inp
   10 false : written    gfnff_topo
   10 false : written    gfnff_adjacency
   10 false : written    gfnff_charges
   10 false : deleted    .xtboptok
   10 false : replaced   xtbopt.log
   11 false : created    .xtboptok
   11 false : replaced   gfnff_charges
   10 false : replaced   xtbopt.pdb

------------------------------------------------------------------------
 * finished run on 2025/05/27 at 09:37:53.496     
------------------------------------------------------------------------
 total:
 * wall-time:     0 d,  0 h,  0 min,  0.012 sec
 *  cpu-time:     0 d,  0 h,  0 min,  0.012 sec
 * ratio c/w:     0.999 speedup
 SCF:
 * wall-time:     0 d,  0 h,  0 min,  0.001 sec
 *  cpu-time:     0 d,  0 h,  0 min,  0.001 sec
 * ratio c/w:     1.000 speedup
 ANC optimizer:
 * wall-time:     0 d,  0 h,  0 min,  0.009 sec
 *  cpu-time:     0 d,  0 h,  0 min,  0.009 sec
 * ratio c/w:     0.998 speedup

