      -----------------------------------------------------------      
     |                   =====================                   |     
     |                           x T B                           |     
     |                   =====================                   |     
     |                         S. Grimme                         |     
     |          Mulliken Center for Theoretical Chemistry        |     
     |                    University of Bonn                     |     
      -----------------------------------------------------------      

   * xtb version 6.6.1 (8d0f1dd) compiled by 'conda@1efc2f54142f' on 2023-08-01

   xtb is free software: you can redistribute it and/or modify it under
   the terms of the GNU Lesser General Public License as published by
   the Free Software Foundation, either version 3 of the License, or
   (at your option) any later version.
   
   xtb is distributed in the hope that it will be useful,
   but WITHOUT ANY WARRANTY; without even the implied warranty of
   MERCHANTABILITY or FITNESS FOR A PARTICULAR PURPOSE.  See the
   GNU Lesser General Public License for more details.
   
   Cite this work as:
   * C. Bannwarth, E. Caldeweyher, S. Ehlert, A. Hansen, P. Pracht,
     J. Seibert, S. Spicher, S. Grimme, WIREs Comput. Mol. Sci., 2020, 11,
     e01493. DOI: 10.1002/wcms.1493
   
   for GFN2-xTB:
   * C. Bannwarth, S. Ehlert and S. Grimme., J. Chem. Theory Comput., 2019,
     15, 1652-1671. DOI: 10.1021/acs.jctc.8b01176
   for GFN1-xTB:
   * S. Grimme, C. Bannwarth, P. Shushkov, J. Chem. Theory Comput., 2017,
     13, 1989-2009. DOI: 10.1021/acs.jctc.7b00118
   for GFN0-xTB:
   * P. Pracht, E. Caldeweyher, S. Ehlert, S. Grimme, ChemRxiv, 2019, preprint.
     DOI: 10.26434/chemrxiv.8326202.v1
   for GFN-FF:
   * S. Spicher and S. Grimme, Angew. Chem. Int. Ed., 2020, 59, 15665-15673.
     DOI: 10.1002/anie.202004239
   
   for ALPB and GBSA implicit solvation:
   * S. Ehlert, M. Stahn, S. Spicher, S. Grimme, J. Chem. Theory Comput.,
     2021, 17, 4250-4261. DOI: 10.1021/acs.jctc.1c00471
   
   for DFT-D4:
   * E. Caldeweyher, C. Bannwarth and S. Grimme, J. Chem. Phys., 2017,
     147, 034112. DOI: 10.1063/1.4993215
   * E. Caldeweyher, S. Ehlert, A. Hansen, H. Neugebauer, S. Spicher,
     C. Bannwarth and S. Grimme, J. Chem. Phys., 2019, 150, 154122.
     DOI: 10.1063/1.5090222
   * E. Caldeweyher, J.-M. Mewes, S. Ehlert and S. Grimme, Phys. Chem. Chem. Phys.
     2020, 22, 8499-8512. DOI: 10.1039/D0CP00502A
   
   for sTDA-xTB:
   * S. Grimme and C. Bannwarth, J. Chem. Phys., 2016, 145, 054103.
     DOI: 10.1063/1.4959605
   
   in the mass-spec context:
   * V. Asgeirsson, C. Bauer and S. Grimme, Chem. Sci., 2017, 8, 4879.
     DOI: 10.1039/c7sc00601b
   * J. Koopman and S. Grimme, ACS Omega 2019, 4, 12, 15120-15133.
     DOI: 10.1021/acsomega.9b02011
   
   for metadynamics refer to:
   * S. Grimme, J. Chem. Theory Comput., 2019, 155, 2847-2862
     DOI: 10.1021/acs.jctc.9b00143
   
   for SPH calculations refer to:
   * S. Spicher and S. Grimme, J. Chem. Theory Comput., 2021, 17, 1701-1714
     DOI: 10.1021/acs.jctc.0c01306
   
   with help from (in alphabetical order)
   P. Atkinson, C. Bannwarth, F. Bohle, G. Brandenburg, E. Caldeweyher
   M. Checinski, S. Dohm, S. Ehlert, S. Ehrlich, I. Gerasimov, C. Hölzer
   A. Katbashev, J. Koopman, C. Lavigne, S. Lehtola, F. März, M. Müller,
   F. Musil, H. Neugebauer, J. Pisarek, C. Plett, P. Pracht, F. Pultar,
   J. Seibert, P. Shushkov, S. Spicher, M. Stahn, M. Steiner, T. Strunk,
   J. Stückrath, T. Rose, and J. Unsleber
   
 * started run on 2025/05/27 at 09:37:30.465     

           -------------------------------------------------
          |                Calculation Setup                |
           -------------------------------------------------

          program call               : xtb substructure_1.pdb --gfnff --input xtb_settings.inp --opt vtight --alpb water --verbose
          coordinate file            : substructure_1.pdb
          xtbhome directory          : /home/dargen3
          path for xtb               : /home/dargen3
          xcontrol input file        : xtb_settings.inp
          omp threads                :                     1

$$$$$$$$$$$$$$$$$$$$$$$$$$$$$$$$$$$$$$$$$$$$$$$$$$$$$$$$$$$$$$$$$$$$$$$$
 CONSTRAINTS & SCANS: DEBUG SECTION
$$$$$$$$$$$$$$$$$$$$$$$$$$$$$$$$$$$$$$$$$$$$$$$$$$$$$$$$$$$$$$$$$$$$$$$$
   ID    Z sym.   atoms
    1    6  C     1, 4, 5, 11, 12, 18, 19, 25, 26, 32
    2    8  O     2, 6, 13, 20, 27
    3    7  N     3, 10, 17, 24, 31
    4    1  H     7-9, 14-16, 21-23, 28-30, 33-35
> constrain
-> atoms: 1, 2, 3, 4, 5, 6, 7, 8, 9, 10, 11, 12, 13, 14, 15, 16, 18, 24, 25, 26, 27, 28, 29, 30, 31, 32, 33, 34, 35
--> 1: 1
--> 2: 2
--> 3: 3
--> 4: 4
--> 5: 5
--> 6: 6
--> 7: 7
--> 8: 8
--> 9: 9
--> 10: 10
--> 11: 11
--> 12: 12
--> 13: 13
--> 14: 14
--> 15: 15
--> 16: 16
--> 17: 18
--> 18: 24
--> 19: 25
--> 20: 26
--> 21: 27
--> 22: 28
--> 23: 29
--> 24: 30
--> 25: 31
--> 26: 32
--> 27: 33
--> 28: 34
--> 29: 35
-> force constant=1.0
$$$$$$$$$$$$$$$$$$$$$$$$$$$$$$$$$$$$$$$$$$$$$$$$$$$$$$$$$$$$$$$$$$$$$$$$
           -------------------------------------------------
          |                   Constraints                   |
           -------------------------------------------------

 * 29 constrained atom positions
   positions refering to input geometry

     #   Z                                   position/Å      displ./Å
     1   6 C     -4.7410004   -11.2720010     1.4950001     0.0000000
     2   8 O     -5.7500005   -10.5920010     1.4880001     0.0000000
     3   7 N     -3.4710003   -10.6620010     1.1870001     0.0000000
     4   6 C     -2.2890002   -11.3470011     0.7820001     0.0000000
     5   6 C     -2.0450002   -11.2290010    -0.7100001     0.0000000
     6   8 O     -2.8540003   -11.6060011    -1.5280001     0.0000000
     7   1 H     -3.4890003    -9.7370009     0.7660001     0.0000000
     8   1 H     -1.4380001   -11.0410010     1.3540001     0.0000000
     9   1 H     -2.3910002   -12.4520012     0.9820001     0.0000000
    10   7 N     -0.7770001   -10.7380010    -1.0400001     0.0000000
    11   6 C     -0.3730000   -10.4770010    -2.3880002     0.0000000
    12   6 C     -0.6980001    -9.0840008    -2.8060003     0.0000000
    13   8 O     -1.6840002    -8.5490008    -2.3310002     0.0000000
    14   1 H     -0.1150000   -10.4110010    -0.3330000     0.0000000
    15   1 H      0.6570001   -10.7540010    -2.5750002     0.0000000
    16   1 H     -1.0000001   -11.1600010    -3.0210003     0.0000000
    18   6 C      1.3240001    -8.8870008    -4.3620004     0.0000000
    24   7 N      2.7050003    -8.2100008    -6.2870006     0.0000000
    25   6 C      3.0050003    -7.6070007    -7.5660007     0.0000000
    26   6 C      3.2150003    -6.1320006    -7.4160007     0.0000000
    27   8 O      2.3700002    -5.4910005    -6.8190006     0.0000000
    28   1 H      3.5180003    -8.5100008    -5.7480005     0.0000000
    29   1 H      3.8030004    -8.1070008    -8.0920008     0.0000000
    30   1 H      2.0870002    -7.7430007    -8.1910008     0.0000000
    31   7 N      4.3960004    -5.4600005    -7.9170007     0.0000000
    32   6 C      5.4280005    -5.9890006    -8.7440008     0.0000000
    33   1 H      4.3870004    -4.4450004    -7.9540007     0.0000000
    34   1 H      6.4040006    -5.7360005    -8.4130008     0.0000000
    35   1 H      5.3970005    -7.1200007    -8.7180008     0.0000000

     applying 406 atom pairwise harmonic potentials
       applied force constant per pair:     0.0357143
     effective force constant per atom:     1.0000000
         constraining energy/grad norm:     0.0000000     0.0000000

     total constraint energy/grad norm:     0.0000000     0.0000000

          charge from pdb residues: 0

          entering GFN-FF setup routine... 35

          ==================== Thresholds ====================
          CN  :   150.00000
          rep :   500.00000
          disp:  2500.00000
          HB1 :   250.00000
          HB2 :   450.00000

          Pauling EN used:
          Z : 1  EN :  2.20
          Z : 6  EN :  2.55
          Z : 7  EN :  3.04
          Z : 8  EN :  3.44
          electric field strengths (au): 0.000

           ------------------------------------------------- 
          |           Force Field Initialization            |
           ------------------------------------------------- 

          distances ...
          ----------------------------------------
          generating topology and atomic info file ...
          pair mat ...
          computing topology distances matrix with Floyd-Warshall algo ...
          making topology EEQ charges ...
          #fragments for EEQ constrain from pdb file: 6
          ----------------------------------------
          generating topology and atomic info file ...
          pair mat ...
          computing topology distances matrix with Floyd-Warshall algo ...
          making topology EEQ charges ...
          #fragments for EEQ constrain from pdb file: 6
          rings ...
          # BATM   270
          # H in HB   15
          doing iterative Hueckel for 5 subsystem(s) ...
          iterative Hueckel run to get P ...
Hueckel system :  1 charge :   0 ndim/Nel :    3    3   eps(HOMO/LUMO)   -0.953512   -0.953512
Hueckel system :  2 charge :   0 ndim/Nel :    3    4   eps(HOMO/LUMO)   -0.911362   -0.911362
Hueckel system :  3 charge :   0 ndim/Nel :    3    4   eps(HOMO/LUMO)   -0.911922   -0.911922
Hueckel system :  4 charge :   0 ndim/Nel :    3    4   eps(HOMO/LUMO)   -0.910012   -0.910012
Hueckel system :  5 charge :   0 ndim/Nel :    4    5   eps(HOMO/LUMO)    1.305315    1.305315
WARNING: probably wrong pi occupation for system 5. Second attempt with Nel=Nel-1!
 at,nb,topo%hyb,Npiel:          26  C             3           2           1
 at,nb,topo%hyb,Npiel:          27  O             1           2           1
 at,nb,topo%hyb,Npiel:          31  N             3           3           2
 at,nb,topo%hyb,Npiel:          32  C             3           2           1

          eigenvalues
 #    :           1          2          3          4
 occ. :        2.000      1.987      0.013      0.000
 eps  :        -4.349     -2.183      1.305      3.389
Hueckel system :  5 charge :   0 ndim/Nel :    4    4   eps(HOMO/LUMO)   -2.182828    1.305315

  atom   neighbors  erfCN metchar sp-hybrid imet pi  qest     coordinates
    1   C      2    1.92   0.00        -2    0    1   0.120   -8.959192  -21.300993    2.825141
    2   O      1    0.98   0.00         2    0    1  -0.120  -10.865925  -20.015979    2.811912
    3   N      3    2.79   0.00        -3    0    1  -0.166   -6.559239  -20.148260    2.243105
    4   C      4    3.49   0.00         3    0    0   0.005   -4.325583  -21.442722    1.477766
    5   C      3    2.79   0.00         2    0    1   0.174   -3.864490  -21.219735   -1.341706
    6   O      1    0.98   0.00         2    0    1  -0.352   -5.393278  -21.932161   -2.887502
    7   H      1    0.98   0.00         0    0    0   0.153   -6.593254  -18.400263    1.447530
    8   H      1    0.98   0.00         0    0    0   0.093   -2.717426  -20.864466    2.558689
    9   H      1    0.97   0.01         0    0    0   0.093   -4.518335  -23.530870    1.855711
   10   N      3    2.79   0.00        -3    0    1  -0.168   -1.468317  -20.291879   -1.965315
   11   C      4    3.49   0.00         3    0    0   0.006   -0.704868  -19.798661   -4.512666
   12   C      3    2.79   0.00         2    0    1   0.175   -1.319029  -17.166272   -5.302572
   13   O      1    0.98   0.00         2    0    1  -0.352   -3.182299  -16.155269   -4.404952
   14   H      1    0.98   0.00         0    0    0   0.154   -0.217319  -19.673939   -0.629279
   15   H      1    0.97   0.00         0    0    0   0.092    1.241550  -20.322115   -4.866045
   16   H      1    0.97   0.01         0    0    0   0.092   -1.889726  -21.089344   -5.708863
   17   N      3    2.79   0.00        -3    0    1  -0.167    0.192752  -15.837795   -7.116709
   18   C      4    3.49   0.00         3    0    0   0.005    2.501997  -16.793996   -8.242985
   19   C      3    2.80   0.00         2    0    1   0.178    2.673962  -15.637484  -10.884822
   20   O      1    0.98   0.00         2    0    1  -0.353    0.805023  -15.021433  -12.050783
   21   H      1    0.98   0.00         0    0    0   0.151   -0.538572  -14.346801   -8.097476
   22   H      1    0.98   0.00         0    0    0   0.093    4.078029  -16.406602   -7.126157
   23   H      1    0.97   0.01         0    0    0   0.093    2.284679  -18.880254   -8.516996
   24   N      3    2.79   0.00        -3    0    1  -0.170    5.111709  -15.514651  -11.880708
   25   C      4    3.49   0.00         3    0    0   0.006    5.678627  -14.375147  -14.297668
   26   C      3    2.79   0.00         2    0    1   0.195    6.075469  -11.587801  -14.014209
   27   O      1    0.98   0.00         2    0    1  -0.357    4.478651  -10.376486  -12.886042
   28   H      1    0.98   0.00         0    0    0   0.147    6.648057  -16.081569  -10.862146
   29   H      1    0.97   0.00         0    0    0   0.090    7.186628  -15.320010  -15.291664
   30   H      1    0.97   0.01         0    0    0   0.090    3.943858  -14.632149  -15.478747
   31   N      3    2.79   0.00         3    0    1  -0.226    8.307236  -10.317905  -14.960962
   32   C      3    2.78   0.00         2    0    1  -0.008   10.257433  -11.317570  -16.523765
   33   H      1    0.98   0.00         0    0    0   0.123    8.290229   -8.399833  -15.030882
   34   H      1    0.98   0.00         0    0    0   0.055   12.101806  -10.839469  -15.898266
   35   H      1    0.97   0.01         0    0    0   0.055   10.198852  -13.454850  -16.474632

molecular fragment  # atoms  topo charge
       1             2            -0.000
       2             7            -0.000
       3             7            -0.000
       4             7             0.000
       5             7             0.000
       6             5            -0.000


          #atoms :   35
          #bonds :   34

 bond atoms        type  in ring    R      R0    piBO    fqq  kbond(tot)  alp
 O  C     2    1      2    0     1.217   0.995   0.799   1.047  -0.252   0.584
 N  C     3    1      2    0     1.442   1.214   0.504   1.047  -0.235   0.524
 C  N     4    3      1    0     1.425   1.325 -99.000   1.033  -0.151   0.496
 C  C     5    4      1    0     1.516   1.332 -99.000   1.013  -0.162   0.475
 O  C     6    5      2    0     1.211   1.031   0.856   1.047  -0.262   0.584
 H  N     7    3      1    0     1.016   0.890 -99.000   1.047  -0.176   0.551
 H  C     8    4      1    0     1.070   0.976 -99.000   1.018  -0.164   0.482
 H  C     9    4      1    0     1.128   0.976 -99.000   1.018  -0.164   0.482
 N  C    10    5      2    0     1.399   1.263   0.503   1.047  -0.234   0.524
 C  N    11   10      1    0     1.431   1.326 -99.000   1.036  -0.151   0.496
 C  C    12   11      1    0     1.490   1.332 -99.000   1.011  -0.162   0.475
 O  C    13   12      2    0     1.218   1.031   0.856   1.047  -0.262   0.584
 H  N    14   10      1    0     1.022   0.890 -99.000   1.047  -0.176   0.551
 H  C    15   11      1    0     1.083   0.976 -99.000   1.016  -0.164   0.482
 H  C    16   11      1    0     1.123   0.976 -99.000   1.016  -0.164   0.482
 N  C    17   12      2    0     1.434   1.263   0.503   1.047  -0.234   0.524
 C  N    18   17      1    0     1.451   1.326 -99.000   1.033  -0.151   0.496
 C  C    19   18      1    0     1.529   1.332 -99.000   1.014  -0.162   0.475
 O  C    20   19      2    0     1.210   1.031   0.856   1.047  -0.262   0.584
 H  N    21   17      1    0     1.021   0.890 -99.000   1.047  -0.176   0.551
 H  C    22   18      1    0     1.043   0.977 -99.000   1.018  -0.164   0.482
 H  C    23   18      1    0     1.119   0.976 -99.000   1.018  -0.164   0.482
 N  C    24   19      2    0     1.395   1.263   0.504   1.047  -0.234   0.524
 C  N    25   24      1    0     1.445   1.326 -99.000   1.034  -0.151   0.496
 C  C    26   25      1    0     1.497   1.332 -99.000   1.011  -0.162   0.475
 O  C    27   26      2    0     1.217   1.017   0.930   1.047  -0.274   0.584
 H  N    28   24      1    0     1.021   0.890 -99.000   1.047  -0.176   0.551
 H  C    29   25      1    0     1.079   0.976 -99.000   1.018  -0.164   0.482
 H  C    30   25      1    0     1.119   0.976 -99.000   1.018  -0.164   0.482
 N  C    31   26      2    0     1.448   1.291   0.346   1.047  -0.203   0.524
 C  N    32   31      2    0     1.424   1.189   0.906   1.006  -0.302   0.524
 H  N    33   31      1    0     1.016   0.890 -99.000   1.047  -0.176   0.551
 H  C    34   32      1    0     1.061   0.950 -99.000   1.029  -0.179   0.490
 H  C    35   32      1    0     1.132   0.949 -99.000   1.029  -0.179   0.490
          #angl  :   55

 angle atoms        phi0    phi      FC  pi rings
    1    3    2   145.000 119.514   0.082 F   0
    3    4    1   115.000 126.005   0.411 F   0
    3    7    1   115.000 117.244   0.335 F   0
    3    7    4   104.000 109.539   0.182 F   0
    4    5    3   109.500 112.069   0.307 F   0
    4    8    3   109.500 111.734   0.253 F   0
    4    8    5   109.500 112.069   0.251 F   0
    4    9    3   109.500 110.222   0.253 F   0
    4    9    5   109.500 105.386   0.251 F   0
    4    9    8   108.600 104.914   0.209 F   0
    5    6    4   120.000 122.210   0.178 F   0
    5   10    4   120.000 113.902   0.243 F   0
    5   10    6   120.000 123.744   0.176 F   0
   10   11    5   115.000 122.815   0.409 F   0
   10   14    5   115.000 122.411   0.333 F   0
   10   14   11   104.000 114.221   0.182 F   0
   11   12   10   109.500 111.906   0.307 F   0
   11   15   10   109.500 112.612   0.253 F   0
   11   15   12   109.500 113.460   0.252 F   0
   11   16   10   109.500 105.216   0.253 F   0
   11   16   12   109.500 106.782   0.252 F   0
   11   16   15   108.600 106.155   0.209 F   0
   12   13   11   120.000 118.533   0.178 F   0
   12   17   11   120.000 121.630   0.243 F   0
   12   17   13   120.000 119.824   0.176 F   0
   17   18   12   115.000 125.033   0.409 F   0
   17   21   12   115.000 120.527   0.333 F   0
   17   21   18   104.000 112.342   0.182 F   0
   18   19   17   109.500 106.630   0.307 F   0
   18   22   17   109.500 111.862   0.253 F   0
   18   22   19   109.500 113.082   0.251 F   0
   18   23   17   109.500 108.100   0.253 F   0
   18   23   19   109.500 106.408   0.251 F   0
   18   23   22   108.600 110.460   0.209 F   0
   19   20   18   120.000 121.689   0.178 F   0
   19   24   18   120.000 114.781   0.242 F   0
   19   24   20   120.000 123.398   0.176 F   0
   24   25   19   115.000 123.067   0.409 F   0
   24   28   19   115.000 121.564   0.333 F   0
   24   28   25   104.000 115.126   0.182 F   0
   25   26   24   109.500 110.572   0.307 F   0
   25   29   24   109.500 113.057   0.253 F   0
   25   29   26   109.500 113.685   0.251 F   0
   25   30   24   109.500 105.859   0.253 F   0
   25   30   26   109.500 106.903   0.251 F   0
   25   30   29   108.600 106.156   0.209 F   0
   26   27   25   120.000 118.070   0.177 F   0
   26   31   25   120.000 122.465   0.241 F   0
   26   31   27   120.000 119.438   0.174 F   0
   31   32   26   113.000 128.270   0.042 F   0
   31   33   26   113.000 117.974   0.211 F   0
   31   33   32   113.000 110.880   0.105 F   0
   32   34   31   120.000 113.373   0.204 F   0
   32   35   31   120.000 109.753   0.204 F   0
   32   35   34   120.000 104.850   0.167 F   0
 torsion atoms        nrot   rings    phi0    phi      FC
    3    1    4    2   2      0     180.000 160.917   0.765
    3    1    7    2   2      0     180.000  13.865   1.135
    4    3    5    1   3      0     180.000 102.626   0.024
    4    3    5    7   3      0     180.000  46.505   0.032
    4    3    8    1   3      0     180.000 130.642   0.034
    4    3    8    7   3      0     180.000  80.227   0.045
    4    3    9    1   3      0     180.000  14.404   0.034
    4    3    9    7   3      0     180.000 163.534   0.045
    5    4    6    3   3      0     180.000  58.231   0.066
    5    4    6    8   3      0     180.000 175.218   0.115
    5    4    6    9   3      0     180.000  61.665   0.115
    5    4   10    3   3      0     180.000 125.986   0.041
    5    4   10    8   3      0     180.000   0.565   0.072
    5    4   10    9   3      0     180.000 114.118   0.072
   10    5   11    4   2      0     180.000 176.257   0.615
   10    5   11    6   2      0     180.000   8.034   0.833
   10    5   14    4   2      0     180.000   5.285   0.912
   10    5   14    6   2      0     180.000 179.006   1.236
   11   10   12    5   3      0     180.000  89.585   0.022
   11   10   12   14   3      0     180.000  82.062   0.032
   11   10   15    5   3      0     180.000 141.194   0.032
   11   10   15   14   3      0     180.000  47.158   0.045
   11   10   16    5   3      0     180.000  26.002   0.032
   11   10   16   14   3      0     180.000 162.350   0.045
   12   11   13   10   3      0     180.000  31.658   0.066
   12   11   13   15   3      0     180.000 160.433   0.115
   12   11   13   16   3      0     180.000  82.971   0.115
   12   11   17   10   3      0     180.000 149.671   0.041
   12   11   17   15   3      0     180.000  20.895   0.072
   12   11   17   16   3      0     180.000  95.700   0.072
   17   12   18   11   2      0     180.000   3.917   0.614
   17   12   18   13   2      0     180.000 177.428   0.832
   17   12   21   11   2      0     180.000 158.325   0.911
   17   12   21   13   2      0     180.000  20.330   1.235
   18   17   19   12   3      0     180.000 149.709   0.022
   18   17   19   21   3      0     180.000  13.789   0.032
   18   17   22   12   3      0     180.000  86.185   0.032
   18   17   22   21   3      0     180.000 110.317   0.045
   18   17   23   12   3      0     180.000  35.644   0.032
   18   17   23   21   3      0     180.000 127.854   0.045
   19   18   20   17   3      0     180.000  27.509   0.066
   19   18   20   22   3      0     180.000 150.859   0.115
   19   18   20   23   3      0     180.000  87.702   0.115
   19   18   24   17   3      0     180.000 156.524   0.041
   19   18   24   22   3      0     180.000  33.174   0.072
   19   18   24   23   3      0     180.000  88.264   0.072
   24   19   25   18   2      0     180.000 176.924   0.620
   24   19   25   20   2      0     180.000   7.187   0.840
   24   19   28   18   2      0     180.000   2.861   0.920
   24   19   28   20   2      0     180.000 178.750   1.247
   25   24   26   19   3      0     180.000  86.055   0.022
   25   24   26   28   3      0     180.000  88.359   0.032
   25   24   29   19   3      0     180.000 145.184   0.032
   25   24   29   28   3      0     180.000  40.402   0.045
   25   24   30   19   3      0     180.000  29.380   0.032
   25   24   30   28   3      0     180.000 156.206   0.045
   26   25   27   24   3      0     180.000  50.654   0.066
   26   25   27   29   3      0     180.000 179.075   0.115
   26   25   27   30   3      0     180.000  64.125   0.115
   26   25   31   24   3      0     180.000 127.447   0.041
   26   25   31   29   3      0     180.000   0.974   0.072
   26   25   31   30   3      0     180.000 117.774   0.072
   31   26   32   25   2      0     180.000   8.655   0.343
   31   26   32   27   2      0     180.000 173.269   0.465
   31   26   33   25   2      0     180.000 167.566   0.489
   31   26   33   27   2      0     180.000  14.358   0.663
   32   31   34   26   2      0     180.000 134.711   1.385
   32   31   34   33   2      0     180.000  65.172   1.974
   32   31   35   26   2      0     180.000  17.848   1.385
   32   31   35   33   2      0     180.000 177.965   1.974
 out-of-plane atoms          phi0    phi      FC
    3    7    4    1          0.000 -24.524   0.133
    5    6   10    4          0.000  -3.922  23.920
   10   14    5   11          0.000   7.578   0.125
   12   13   17   11          0.000  -1.145  23.974
   17   21   12   18          0.000  14.462   0.130
   19   20   24   18          0.000  -3.732  24.122
   24   28   19   25          0.000   4.973   0.116
   26   27   31   25          0.000   1.623  28.543
   31   33   32   26          0.000 -15.487  -0.052
   32   34   35   31          0.000  52.876   0.552
          #tors  :   80
          #nmol  :   6
          #optfrag :   6

 GFN-FF setup done.

           ------------------------------------------------- 
          |                   G F N - F F                   |
          |          A general generic force-field          |
          |                  Version 1.0.3                  | 
           ------------------------------------------------- 
      * Solvation model:               ALPB
        Solvent                        water
        Parameter file                 internal GFN-FF/ALPB
        Dielectric constant                8.0200E+01
        Reference state                gsolv [1 M gas/solution]
        Free energy shift                  3.6494E-04 Eh       2.2900E-01 kcal/mol
        Temperature                        2.9815E+02 K
        Density                            1.0000E+00 kg/L
        Solvent mass                       1.8000E+01 g/mol
        Interaction kernel             P16
        Born radius scaling (c1)           1.5056E+00
        Born radii integrator          GBOBC
        Born offset                        0.0000E+00 a0       0.0000E+00 AA
        H-bond correction              true
        Ion screening                  false
        Surface tension                    1.0000E-05 Eh       1.5569E+01 dyn/cm
        Grid points                               230 per atom
          Number of HB bonds (bound hydrogen)     309
          Number of HB bonds (unbound hydrogen)   42
          Number of XB bonds                      0

 E+G (total)                   0 d,  0 h,  0 min,  0.001 sec
 distance/D3 list               ...        0 min,  0.000 sec (  0.244%)
 non bonded repulsion           ...        0 min,  0.000 sec (  2.755%)
 dCN                            ...        0 min,  0.000 sec (  3.571%)
 EEQ energy and q               ...        0 min,  0.000 sec (  5.517%)
 D3                             ...        0 min,  0.000 sec (  9.789%)
 EEQ gradient                   ...        0 min,  0.000 sec (  5.085%)
 bonds                          ...        0 min,  0.000 sec (  1.124%)
 bend and torsion               ...        0 min,  0.000 sec (  4.572%)
 bonded ATM                     ...        0 min,  0.000 sec (  1.873%)
 HB/XB (incl list setup)        ...        0 min,  0.000 sec (  8.929%)
 GBSA                           ...        0 min,  0.000 sec ( 59.019%)

         :::::::::::::::::::::::::::::::::::::::::::::::::::::
         ::                     SUMMARY                     ::
         :::::::::::::::::::::::::::::::::::::::::::::::::::::
         :: total energy              -6.212865208229 Eh    ::
         :: total w/o Gsolv           -6.169761489360 Eh    ::
         :: total w/o Gsasa/hb        -6.208039749643 Eh    ::
         :: gradient norm              0.211778898989 Eh/a0 ::
         ::.................................................::
         :: bond energy               -6.254834122929 Eh    ::
         :: angle energy               0.032050210037 Eh    ::
         :: torsion energy             0.015408863023 Eh    ::
         :: repulsion energy           0.368292419291 Eh    ::
         :: electrostat energy        -0.300079248281 Eh    ::
         :: dispersion energy         -0.022630685916 Eh    ::
         :: HB energy                 -0.000540793389 Eh    ::
         :: XB energy                  0.000000000000 Eh    ::
         :: bonded atm energy         -0.007428131197 Eh    ::
         :: external energy            0.000000000000 Eh    ::
         :: -> Gsolv                  -0.043103718869 Eh    ::
         ::    -> Gborn               -0.038278260283 Eh    ::
         ::    -> Gsasa                0.009353534250 Eh    ::
         ::    -> Ghb                 -0.014543932091 Eh    ::
         ::    -> Gshift               0.000364939255 Eh    ::
         :: add. restraining           0.000000000000 Eh    ::
         :: total charge               0.000000000000 e     ::
         ::.................................................::
         :: atomisation energy         0.000000000000 Eh    ::
         :::::::::::::::::::::::::::::::::::::::::::::::::::::

      ----------------------------------------------------------- 
     |                   =====================                   |
     |                        A N C O P T                        |
     |                   =====================                   |
     |               Approximate Normal Coordinate               |
     |                Rational Function Optimizer                |
      ----------------------------------------------------------- 

          ...................................................
          :                      SETUP                      :
          :.................................................:
          :   optimization level         verytight          :
          :   max. optcycles                    10          :
          :   ANC micro-cycles                  10          :
          :   degrees of freedom                99          :
          :.................................................:
          :   RF solver                   davidson          :
          :   write xtbopt.log                true          :
          :   linear?                        false          :
          :   energy convergence         0.1000000E-06 Eh   :
          :   grad. convergence          0.2000000E-03 Eh/α :
          :   maxmium RF displ.          1.0000000          :
          :   Hlow (freq-cutoff)         0.1000000E-01      :
          :   Hmax (freq-cutoff)         5.0000000          :
          :   S6 in model hess.         20.0000000          :
          ...................................................

generating ANC from model Hessian ...
Using GFN-FF Lindh-Hessian
 Shifting diagonal of input Hessian by    0.0000000000000000     
 Lowest  eigenvalues of input Hessian
    0.000000    0.000000    0.000000    0.000000    0.000000    0.000000
    0.014563    0.015785    0.019235    0.027992    0.043754    0.069627
    0.071316    0.083708    0.087662    0.109535    0.112779    0.122085
 Highest eigenvalues
    3.301247    3.676161    3.764455    3.855742    3.982600    4.165509


........................................................................
.............................. CYCLE    1 ..............................
........................................................................
     iter. time                 ...        0 min,  0.001 sec
 * total energy  :    -6.2128652 Eh     change        0.0000000E+00 Eh
   gradient norm :     0.2117789 Eh/α   predicted     0.0000000E+00 (    NaN%)
   displ. norm   :     0.1617753 α      lambda       -0.2377238E-01
   maximum displ.:     0.0516010 α      in ANC's #15, #19, #44, ...

........................................................................
.............................. CYCLE    2 ..............................
........................................................................
     iter. time                 ...        0 min,  0.001 sec
 * total energy  :    -6.2295490 Eh     change       -0.1668384E-01 Eh
   gradient norm :     0.0861759 Eh/α   predicted    -0.1219726E-01 ( -26.89%)
   displ. norm   :     0.1411217 α      lambda       -0.8538382E-02
   maximum displ.:     0.0486216 α      in ANC's #19, #28, #44, ...

........................................................................
.............................. CYCLE    3 ..............................
........................................................................
     iter. time                 ...        0 min,  0.001 sec
 * total energy  :    -6.2343917 Eh     change       -0.4842604E-02 Eh
   gradient norm :     0.0248770 Eh/α   predicted    -0.4354373E-02 ( -10.08%)
   displ. norm   :     0.0652255 α      lambda       -0.7501837E-03
   maximum displ.:     0.0362112 α      in ANC's #2, #19, #32, ...

........................................................................
.............................. CYCLE    4 ..............................
........................................................................
     iter. time                 ...        0 min,  0.001 sec
 * total energy  :    -6.2349278 Eh     change       -0.5361440E-03 Eh
   gradient norm :     0.0151527 Eh/α   predicted    -0.3766942E-03 ( -29.74%)
   displ. norm   :     0.0830218 α      lambda       -0.4376370E-03
   maximum displ.:     0.0557434 α      in ANC's #2, #14, #32, ...

........................................................................
.............................. CYCLE    5 ..............................
........................................................................
     iter. time                 ...        0 min,  0.001 sec
 * total energy  :    -6.2351996 Eh     change       -0.2718490E-03 Eh
   gradient norm :     0.0083948 Eh/α   predicted    -0.2203991E-03 ( -18.93%)
   displ. norm   :     0.0520620 α      lambda       -0.1081372E-03
   maximum displ.:     0.0345994 α      in ANC's #2, #1, #6, ...

........................................................................
.............................. CYCLE    6 ..............................
........................................................................
     iter. time                 ...        0 min,  0.001 sec
 * total energy  :    -6.2352789 Eh     change       -0.7927019E-04 Eh
   gradient norm :     0.0063530 Eh/α   predicted    -0.5423258E-04 ( -31.59%)
   displ. norm   :     0.0691196 α      lambda       -0.9321294E-04
   maximum displ.:     0.0417265 α      in ANC's #2, #1, #4, ...

........................................................................
.............................. CYCLE    7 ..............................
........................................................................
     iter. time                 ...        0 min,  0.001 sec
 * total energy  :    -6.2353429 Eh     change       -0.6399382E-04 Eh
   gradient norm :     0.0045515 Eh/α   predicted    -0.4686683E-04 ( -26.76%)
   displ. norm   :     0.0655962 α      lambda       -0.5635513E-04
   maximum displ.:     0.0359013 α      in ANC's #2, #1, #4, ...

........................................................................
.............................. CYCLE    8 ..............................
........................................................................
     iter. time                 ...        0 min,  0.000 sec
 * total energy  :    -6.2353847 Eh     change       -0.4179528E-04 Eh
   gradient norm :     0.0047733 Eh/α   predicted    -0.2832550E-04 ( -32.23%)
   displ. norm   :     0.0867859 α      lambda       -0.6308033E-04
   maximum displ.:     0.0445180 α      in ANC's #2, #4, #1, ...

........................................................................
.............................. CYCLE    9 ..............................
........................................................................
     iter. time                 ...        0 min,  0.000 sec
 * total energy  :    -6.2354268 Eh     change       -0.4204895E-04 Eh
   gradient norm :     0.0061046 Eh/α   predicted    -0.3178198E-04 ( -24.42%)
   displ. norm   :     0.0503624 α      lambda       -0.4317324E-04
   maximum displ.:     0.0300645 α      in ANC's #4, #2, #6, ...

........................................................................
.............................. CYCLE   10 ..............................
........................................................................
     iter. time                 ...        0 min,  0.001 sec
 * total energy  :    -6.2354590 Eh     change       -0.3220253E-04 Eh
   gradient norm :     0.0053727 Eh/α   predicted    -0.2166666E-04 ( -32.72%)
   displ. norm   :     0.0452084 α      lambda       -0.4491683E-04
   maximum displ.:     0.0299231 α      in ANC's #4, #2, #3, ...

   *** FAILED TO CONVERGE GEOMETRY OPTIMIZATION IN 10 ITERATIONS ***


 ANCopt (total)                0 d,  0 h,  0 min,  0.008 sec
 optimizer setup                ...        0 min,  0.000 sec (  1.143%)
 model hessian                  ...        0 min,  0.000 sec (  4.793%)
 ANC generation                 ...        0 min,  0.001 sec (  9.717%)
 coordinate transformation      ...        0 min,  0.000 sec (  0.425%)
 single point calculation       ...        0 min,  0.005 sec ( 72.806%)
 optimization log               ...        0 min,  0.000 sec (  5.349%)
 hessian update                 ...        0 min,  0.000 sec (  0.603%)
 rational function              ...        0 min,  0.000 sec (  3.102%)

================
 final structure:
================
ATOM      1  C   GLY A  10      -4.712 -11.211   1.531  1.00  0.00           C  
ATOM      2  O   GLY A  10      -5.773 -10.650   1.446  1.00  0.00           O  
ATOM      3  N   GLY A  11      -3.497 -10.664   1.166  1.00  0.00           N  
ATOM      4  CA  GLY A  11      -2.297 -11.375   0.762  1.00  0.00           C  
ATOM      5  C   GLY A  11      -2.029 -11.241  -0.709  1.00  0.00           C  
ATOM      6  O   GLY A  11      -2.849 -11.611  -1.528  1.00  0.00           O  
ATOM      7  H   GLY A  11      -3.505  -9.737   0.746  1.00  0.00           H  
ATOM      8  HA2 GLY A  11      -1.447 -11.022   1.351  1.00  0.00           H  
ATOM      9  HA3 GLY A  11      -2.392 -12.445   0.985  1.00  0.00           H  
ATOM     10  N   GLY A  12      -0.780 -10.738  -1.045  1.00  0.00           N  
ATOM     11  CA  GLY A  12      -0.391 -10.489  -2.411  1.00  0.00           C  
ATOM     12  C   GLY A  12      -0.702  -9.082  -2.813  1.00  0.00           C  
ATOM     13  O   GLY A  12      -1.694  -8.557  -2.348  1.00  0.00           O  
ATOM     14  H   GLY A  12      -0.124 -10.398  -0.338  1.00  0.00           H  
ATOM     15  HA2 GLY A  12       0.660 -10.747  -2.572  1.00  0.00           H  
ATOM     16  HA3 GLY A  12      -0.996 -11.170  -3.026  1.00  0.00           H  
ATOM     17  N   GLY A  13       0.098  -8.395  -3.714  1.00  0.00           N  
ATOM     18  CA  GLY A  13       1.298  -8.898  -4.391  1.00  0.00           C  
ATOM     19  C   GLY A  13       1.443  -8.302  -5.766  1.00  0.00           C  
ATOM     20  O   GLY A  13       0.462  -7.932  -6.371  1.00  0.00           O  
ATOM     21  H   GLY A  13      -0.230  -7.504  -4.078  1.00  0.00           H  
ATOM     22  HA2 GLY A  13       2.172  -8.665  -3.773  1.00  0.00           H  
ATOM     23  HA3 GLY A  13       1.230  -9.984  -4.489  1.00  0.00           H  
ATOM     24  N   GLY A  14       2.710  -8.227  -6.296  1.00  0.00           N  
ATOM     25  CA  GLY A  14       2.985  -7.607  -7.582  1.00  0.00           C  
ATOM     26  C   GLY A  14       3.212  -6.127  -7.421  1.00  0.00           C  
ATOM     27  O   GLY A  14       2.372  -5.496  -6.826  1.00  0.00           O  
ATOM     28  H   GLY A  14       3.520  -8.507  -5.748  1.00  0.00           H  
ATOM     29  HA2 GLY A  14       3.807  -8.116  -8.095  1.00  0.00           H  
ATOM     30  HA3 GLY A  14       2.087  -7.756  -8.201  1.00  0.00           H  
ATOM     31  N   GLY A  15       4.380  -5.495  -7.982  1.00  0.00           N  
ATOM     32  CA  GLY A  15       5.426  -5.995  -8.717  1.00  0.00           C  
ATOM     33  H   GLY A  15       4.379  -4.458  -7.966  1.00  0.00           H  
ATOM     34  HA2 GLY A  15       6.405  -5.719  -8.409  1.00  0.00           H  
ATOM     35  HA3 GLY A  15       5.377  -7.099  -8.742  1.00  0.00           H  
END

 Bond Distances (Angstroems)
 ---------------------------
C1-O2=1.2028         C1-N3=1.3817         O2-C1=1.2028         N3-C1=1.3817         N3-C4=1.4521         N3-H7=1.0179         
C4-N3=1.4521         C4-C5=1.5006         C4-H8=1.0931         C4-H9=1.0969         C5-C4=1.5006         C5-O6=1.2161         
C5-N10=1.3884        O6-C5=1.2161         H7-N3=1.0179         H8-C4=1.0931         H9-C4=1.0969         N10-C5=1.3884        
N10-C11=1.4420       N10-H14=1.0224       C11-N10=1.4420       C11-C12=1.4957       C11-H15=1.0940       C11-H16=1.0989       
C12-C11=1.4957       C12-O13=1.2152       C12-N17=1.3868       O13-C12=1.2152       H14-N10=1.0224       H15-C11=1.0940       
H16-C11=1.0989       N17-C12=1.3868       N17-C18=1.4671       N17-H21=1.0165       C18-N17=1.4671       C18-C19=1.5056       
C18-H22=1.0949       C18-H23=1.0926       C19-C18=1.5056       C19-O20=1.2111       C19-N24=1.3753       O20-C19=1.2111       
H21-N17=1.0165       H22-C18=1.0949       H23-C18=1.0926       N24-C19=1.3753       N24-C25=1.4539       N24-H28=1.0175       
C25-N24=1.4539       C25-C26=1.5060       C25-H29=1.0937       C25-H30=1.1009       C26-C25=1.5060       C26-O27=1.2072       
C26-N31=1.4415       O27-C26=1.2072       H28-N24=1.0175       H29-C25=1.0937       H30-C25=1.1009       N31-C26=1.4415       
N31-C32=1.3731       N31-H33=1.0365       C32-N31=1.3731       C32-H34=1.0626       C32-H35=1.1061       H33-N31=1.0365       
H34-C32=1.0626       H35-C32=1.1061       
 C  H  Rav=1.0934 sigma=0.0110  Rmin=1.0626  Rmax=1.1061    10
 C  C  Rav=1.5020 sigma=0.0042  Rmin=1.4957  Rmax=1.5060     4
 N  H  Rav=1.0221 sigma=0.0075  Rmin=1.0165  Rmax=1.0365     5
 N  C  Rav=1.4162 sigma=0.0360  Rmin=1.3731  Rmax=1.4671    10
 O  C  Rav=1.2105 sigma=0.0050  Rmin=1.2028  Rmax=1.2161     5

 selected bond angles (degree)
 --------------------
N3-C1-O2=124.93                C4-N3-C1=127.34                H7-N3-C1=117.58                H7-N3-C4=109.71                
C5-C4-N3=112.13                H8-C4-N3=109.55                H8-C4-C5=111.10                H9-C4-N3=110.46                
H9-C4-C5=107.58                H9-C4-H8=105.81                O6-C5-C4=120.80                N10-C5-C4=115.51               
N10-C5-O6=123.61               C11-N10-C5=122.32              H14-N10-C5=122.02              H14-N10-C11=115.15             

 selected dihedral angles (degree)
 ---------------------------------
C4-N3-C1-O2=205.16            H7-N3-C1-O2=356.47            C5-C4-N3-C1=107.66            C5-C4-N3-H7=314.53            
H8-C4-N3-C1=231.50            H8-C4-N3-H7= 78.38            H9-C4-N3-C1=347.68            H9-C4-N3-H7=194.56            
O6-C5-C4-N3=301.30            O6-C5-C4-H8=178.33            O6-C5-C4-H9= 62.95            N10-C5-C4-N3=124.30           
N10-C5-C4-H8=  1.33           N10-C5-C4-H9=245.95           C11-N10-C5-C4=182.99          C11-N10-C5-O6=  6.09          
H14-N10-C5-C4=354.36          H14-N10-C5-O6=177.45          
           -------------------------------------------------
          |                Final Singlepoint                |
           -------------------------------------------------
         :::::::::::::::::::::::::::::::::::::::::::::::::::::
         ::                     SUMMARY                     ::
         :::::::::::::::::::::::::::::::::::::::::::::::::::::
         :: total energy              -6.235487485361 Eh    ::
         :: total w/o Gsolv           -6.192203531253 Eh    ::
         :: total w/o Gsasa/hb        -6.230704867350 Eh    ::
         :: gradient norm              0.003105393607 Eh/a0 ::
         ::.................................................::
         :: bond energy               -6.291268839784 Eh    ::
         :: angle energy               0.028700771339 Eh    ::
         :: torsion energy             0.014520041301 Eh    ::
         :: repulsion energy           0.378568825582 Eh    ::
         :: electrostat energy        -0.300238261543 Eh    ::
         :: dispersion energy         -0.022633722432 Eh    ::
         :: HB energy                 -0.000392173056 Eh    ::
         :: XB energy                  0.000000000000 Eh    ::
         :: bonded atm energy         -0.007011045936 Eh    ::
         :: external energy            0.000000000000 Eh    ::
         :: -> Gsolv                  -0.043283954108 Eh    ::
         ::    -> Gborn               -0.038501336097 Eh    ::
         ::    -> Gsasa                0.009525867960 Eh    ::
         ::    -> Ghb                 -0.014673425225 Eh    ::
         ::    -> Gshift               0.000364939255 Eh    ::
         :: add. restraining           0.007550873275 Eh    ::
         :: total charge              -0.000000000000 e     ::
         ::.................................................::
         :: atomisation energy         0.000000000000 Eh    ::
         :::::::::::::::::::::::::::::::::::::::::::::::::::::

           -------------------------------------------------
          |                Property Printout                |
           -------------------------------------------------
           -------------------------------------------------
          |                Geometry Summary                 |
           -------------------------------------------------

      molecular mass/u    :      285.2570109
   center of mass at/Å    :       -0.0244416      -8.8927859      -3.5540179
  moments of inertia/u·Å² :        0.3558241E+03   0.6610616E+04   0.6733764E+04
rotational constants/cm⁻¹ :        0.4737631E-01   0.2550085E-02   0.2503449E-02

 * 26 selected distances

     #   Z          #   Z                                           value/Å
     3   7  N       4   6  C                                      1.4521341
     5   6  C       6   8  O                                      1.2160879
     3   7  N       7   1  H                                      1.0178533
     4   6  C       8   1  H                                      1.0930757
     4   6  C       9   1  H                                      1.0969166
     5   6  C      10   7  N                                      1.3884245
    10   7  N      11   6  C                                      1.4420305
    12   6  C      13   8  O                                      1.2151640
    10   7  N      14   1  H                                      1.0224187
    11   6  C      15   1  H                                      1.0940100
    11   6  C      16   1  H                                      1.0988834
    12   6  C      17   7  N                                      1.3867682
    17   7  N      18   6  C                                      1.4670555 (max)
    19   6  C      20   8  O                                      1.2110991
    17   7  N      21   1  H                                      1.0164608 (min)
    18   6  C      22   1  H                                      1.0948703
    18   6  C      23   1  H                                      1.0925671
    19   6  C      24   7  N                                      1.3752509
    24   7  N      25   6  C                                      1.4539129
    26   6  C      27   8  O                                      1.2072303
    24   7  N      28   1  H                                      1.0174573
    25   6  C      29   1  H                                      1.0937189
    25   6  C      30   1  H                                      1.1008947
    31   7  N      32   6  C                                      1.3731096
    31   7  N      33   1  H                                      1.0365196
    32   6  C      34   1  H                                      1.0626429

 * 4 distinct bonds (by element types)

   Z      Z             #   av. dist./Å        max./Å        min./Å
   1 H    6 C           9     1.0919533     1.1008947     1.0626429
   1 H    7 N           5     1.0221419     1.0365196     1.0164608
   6 C    7 N           8     1.4173358     1.4670555     1.3731096
   6 C    8 O           4     1.2123953     1.2160879     1.2072303


optimized geometry written to: xtbopt.pdb


           -------------------------------------------------
          | TOTAL ENERGY               -6.235487485361 Eh   |
          | GRADIENT NORM               0.003105393607 Eh/α |
           -------------------------------------------------
########################################################################
[WARNING] Runtime exception occurred
-1- gfnff_setup: Could not read topology file.
########################################################################

------------------------------------------------------------------------
 unit  open   action     filename
   10 false : read       xtb_settings.inp
   10 false : read       substructure_1.pdb
   10 false : read       xtb_settings.inp
   10 false : written    gfnff_topo
   10 false : written    gfnff_adjacency
   10 false : written    gfnff_charges
   10 false : deleted    .xtboptok
   10 false : replaced   xtbopt.log
   11 false : created    .xtboptok
   11 false : replaced   gfnff_charges
   10 false : replaced   xtbopt.pdb

------------------------------------------------------------------------
 * finished run on 2025/05/27 at 09:37:30.477     
------------------------------------------------------------------------
 total:
 * wall-time:     0 d,  0 h,  0 min,  0.013 sec
 *  cpu-time:     0 d,  0 h,  0 min,  0.013 sec
 * ratio c/w:     0.999 speedup
 SCF:
 * wall-time:     0 d,  0 h,  0 min,  0.001 sec
 *  cpu-time:     0 d,  0 h,  0 min,  0.001 sec
 * ratio c/w:     0.992 speedup
 ANC optimizer:
 * wall-time:     0 d,  0 h,  0 min,  0.008 sec
 *  cpu-time:     0 d,  0 h,  0 min,  0.008 sec
 * ratio c/w:     1.000 speedup

