      -----------------------------------------------------------      
     |                   =====================                   |     
     |                           x T B                           |     
     |                   =====================                   |     
     |                         S. Grimme                         |     
     |          Mulliken Center for Theoretical Chemistry        |     
     |                    University of Bonn                     |     
      -----------------------------------------------------------      

   * xtb version 6.6.1 (8d0f1dd) compiled by 'conda@1efc2f54142f' on 2023-08-01

   xtb is free software: you can redistribute it and/or modify it under
   the terms of the GNU Lesser General Public License as published by
   the Free Software Foundation, either version 3 of the License, or
   (at your option) any later version.
   
   xtb is distributed in the hope that it will be useful,
   but WITHOUT ANY WARRANTY; without even the implied warranty of
   MERCHANTABILITY or FITNESS FOR A PARTICULAR PURPOSE.  See the
   GNU Lesser General Public License for more details.
   
   Cite this work as:
   * C. Bannwarth, E. Caldeweyher, S. Ehlert, A. Hansen, P. Pracht,
     J. Seibert, S. Spicher, S. Grimme, WIREs Comput. Mol. Sci., 2020, 11,
     e01493. DOI: 10.1002/wcms.1493
   
   for GFN2-xTB:
   * C. Bannwarth, S. Ehlert and S. Grimme., J. Chem. Theory Comput., 2019,
     15, 1652-1671. DOI: 10.1021/acs.jctc.8b01176
   for GFN1-xTB:
   * S. Grimme, C. Bannwarth, P. Shushkov, J. Chem. Theory Comput., 2017,
     13, 1989-2009. DOI: 10.1021/acs.jctc.7b00118
   for GFN0-xTB:
   * P. Pracht, E. Caldeweyher, S. Ehlert, S. Grimme, ChemRxiv, 2019, preprint.
     DOI: 10.26434/chemrxiv.8326202.v1
   for GFN-FF:
   * S. Spicher and S. Grimme, Angew. Chem. Int. Ed., 2020, 59, 15665-15673.
     DOI: 10.1002/anie.202004239
   
   for ALPB and GBSA implicit solvation:
   * S. Ehlert, M. Stahn, S. Spicher, S. Grimme, J. Chem. Theory Comput.,
     2021, 17, 4250-4261. DOI: 10.1021/acs.jctc.1c00471
   
   for DFT-D4:
   * E. Caldeweyher, C. Bannwarth and S. Grimme, J. Chem. Phys., 2017,
     147, 034112. DOI: 10.1063/1.4993215
   * E. Caldeweyher, S. Ehlert, A. Hansen, H. Neugebauer, S. Spicher,
     C. Bannwarth and S. Grimme, J. Chem. Phys., 2019, 150, 154122.
     DOI: 10.1063/1.5090222
   * E. Caldeweyher, J.-M. Mewes, S. Ehlert and S. Grimme, Phys. Chem. Chem. Phys.
     2020, 22, 8499-8512. DOI: 10.1039/D0CP00502A
   
   for sTDA-xTB:
   * S. Grimme and C. Bannwarth, J. Chem. Phys., 2016, 145, 054103.
     DOI: 10.1063/1.4959605
   
   in the mass-spec context:
   * V. Asgeirsson, C. Bauer and S. Grimme, Chem. Sci., 2017, 8, 4879.
     DOI: 10.1039/c7sc00601b
   * J. Koopman and S. Grimme, ACS Omega 2019, 4, 12, 15120-15133.
     DOI: 10.1021/acsomega.9b02011
   
   for metadynamics refer to:
   * S. Grimme, J. Chem. Theory Comput., 2019, 155, 2847-2862
     DOI: 10.1021/acs.jctc.9b00143
   
   for SPH calculations refer to:
   * S. Spicher and S. Grimme, J. Chem. Theory Comput., 2021, 17, 1701-1714
     DOI: 10.1021/acs.jctc.0c01306
   
   with help from (in alphabetical order)
   P. Atkinson, C. Bannwarth, F. Bohle, G. Brandenburg, E. Caldeweyher
   M. Checinski, S. Dohm, S. Ehlert, S. Ehrlich, I. Gerasimov, C. Hölzer
   A. Katbashev, J. Koopman, C. Lavigne, S. Lehtola, F. März, M. Müller,
   F. Musil, H. Neugebauer, J. Pisarek, C. Plett, P. Pracht, F. Pultar,
   J. Seibert, P. Shushkov, S. Spicher, M. Stahn, M. Steiner, T. Strunk,
   J. Stückrath, T. Rose, and J. Unsleber
   
 * started run on 2025/05/27 at 09:37:48.090     

           -------------------------------------------------
          |                Calculation Setup                |
           -------------------------------------------------

          program call               : xtb substructure_38.pdb --gfnff --input xtb_settings.inp --opt vtight --alpb water --verbose
          coordinate file            : substructure_38.pdb
          xtbhome directory          : /home/dargen3
          path for xtb               : /home/dargen3
          xcontrol input file        : xtb_settings.inp
          omp threads                :                     1

$$$$$$$$$$$$$$$$$$$$$$$$$$$$$$$$$$$$$$$$$$$$$$$$$$$$$$$$$$$$$$$$$$$$$$$$
 CONSTRAINTS & SCANS: DEBUG SECTION
$$$$$$$$$$$$$$$$$$$$$$$$$$$$$$$$$$$$$$$$$$$$$$$$$$$$$$$$$$$$$$$$$$$$$$$$
   ID    Z sym.   atoms
    1    6  C     1, 4, 5, 11, 12, 18, 19, 25, 26, 32
    2    8  O     2, 6, 13, 20, 27
    3    7  N     3, 10, 17, 24, 31
    4    1  H     7-9, 14-16, 21-23, 28-30, 33-35
> constrain
-> atoms: 1, 2, 3, 4, 5, 6, 7, 8, 9, 10, 11, 12, 13, 14, 15, 16, 18, 24, 25, 26, 27, 28, 29, 30, 31, 32, 33, 34, 35
--> 1: 1
--> 2: 2
--> 3: 3
--> 4: 4
--> 5: 5
--> 6: 6
--> 7: 7
--> 8: 8
--> 9: 9
--> 10: 10
--> 11: 11
--> 12: 12
--> 13: 13
--> 14: 14
--> 15: 15
--> 16: 16
--> 17: 18
--> 18: 24
--> 19: 25
--> 20: 26
--> 21: 27
--> 22: 28
--> 23: 29
--> 24: 30
--> 25: 31
--> 26: 32
--> 27: 33
--> 28: 34
--> 29: 35
-> force constant=1.0
$$$$$$$$$$$$$$$$$$$$$$$$$$$$$$$$$$$$$$$$$$$$$$$$$$$$$$$$$$$$$$$$$$$$$$$$
           -------------------------------------------------
          |                   Constraints                   |
           -------------------------------------------------

 * 29 constrained atom positions
   positions refering to input geometry

     #   Z                                   position/Å      displ./Å
     1   6 C     -4.7780004   -11.3320011     1.3000001     0.0000000
     2   8 O     -5.8330005   -10.7420010     1.1960001     0.0000000
     3   7 N     -3.6150003   -10.7460010     0.8300001     0.0000000
     4   6 C     -2.2890002   -11.3470011     0.7820001     0.0000000
     5   6 C     -1.7680002   -11.4270011    -0.6200001     0.0000000
     6   8 O     -2.2520002   -12.2330011    -1.3870001     0.0000000
     7   1 H     -3.6900003    -9.8800009     0.3020000     0.0000000
     8   1 H     -1.6090001   -10.7720010     1.4170001     0.0000000
     9   1 H     -2.3100002   -12.3630011     1.1920001     0.0000000
    10   7 N     -0.7590001   -10.5690010    -0.9960001     0.0000000
    11   6 C     -0.3730000   -10.4770010    -2.3880002     0.0000000
    12   6 C     -0.7720001    -9.1320008    -2.9520003     0.0000000
    13   8 O     -1.8330002    -8.6590008    -2.6010002     0.0000000
    14   1 H     -0.5150000    -9.7600009    -0.4250000     0.0000000
    15   1 H      0.7030001   -10.6370010    -2.4590002     0.0000000
    16   1 H     -0.8840001   -11.2670010    -2.9320003     0.0000000
    18   6 C      1.3240001    -8.8870008    -4.3620004     0.0000000
    24   7 N      2.7860003    -8.1190008    -6.2260006     0.0000000
    25   6 C      3.0050003    -7.6070007    -7.5660007     0.0000000
    26   6 C      3.1630003    -6.1020006    -7.5460007     0.0000000
    27   8 O      2.2630002    -5.4590005    -7.0460007     0.0000000
    28   1 H      3.5370003    -7.9400007    -5.5590005     0.0000000
    29   1 H      3.8540004    -8.1080008    -8.0230007     0.0000000
    30   1 H      2.1170002    -7.8520007    -8.1550008     0.0000000
    31   7 N      4.2600004    -5.4290005    -8.0640007     0.0000000
    32   6 C      5.4280005    -5.9890006    -8.7440008     0.0000000
    33   1 H      4.2170004    -4.4140004    -8.1050008     0.0000000
    34   1 H      6.3360006    -5.6080005    -8.2830008     0.0000000
    35   1 H      5.4510005    -7.0780007    -8.6180008     0.0000000

     applying 406 atom pairwise harmonic potentials
       applied force constant per pair:     0.0357143
     effective force constant per atom:     1.0000000
         constraining energy/grad norm:     0.0000000     0.0000000

     total constraint energy/grad norm:     0.0000000     0.0000000

          charge from pdb residues: 0

          entering GFN-FF setup routine... 35

          ==================== Thresholds ====================
          CN  :   150.00000
          rep :   500.00000
          disp:  2500.00000
          HB1 :   250.00000
          HB2 :   450.00000

          Pauling EN used:
          Z : 1  EN :  2.20
          Z : 6  EN :  2.55
          Z : 7  EN :  3.04
          Z : 8  EN :  3.44
          electric field strengths (au): 0.000

           ------------------------------------------------- 
          |           Force Field Initialization            |
           ------------------------------------------------- 

          distances ...
          ----------------------------------------
          generating topology and atomic info file ...
          pair mat ...
          computing topology distances matrix with Floyd-Warshall algo ...
          making topology EEQ charges ...
          #fragments for EEQ constrain from pdb file: 6
          ----------------------------------------
          generating topology and atomic info file ...
          pair mat ...
          computing topology distances matrix with Floyd-Warshall algo ...
          making topology EEQ charges ...
          #fragments for EEQ constrain from pdb file: 6
          rings ...
          # BATM   270
          # H in HB   15
          doing iterative Hueckel for 5 subsystem(s) ...
          iterative Hueckel run to get P ...
Hueckel system :  1 charge :   0 ndim/Nel :    3    3   eps(HOMO/LUMO)   -0.953512   -0.953512
Hueckel system :  2 charge :   0 ndim/Nel :    3    4   eps(HOMO/LUMO)   -0.911362   -0.911362
Hueckel system :  3 charge :   0 ndim/Nel :    3    4   eps(HOMO/LUMO)   -0.911922   -0.911922
Hueckel system :  4 charge :   0 ndim/Nel :    3    4   eps(HOMO/LUMO)   -0.910012   -0.910012
Hueckel system :  5 charge :   0 ndim/Nel :    4    5   eps(HOMO/LUMO)    1.305315    1.305315
WARNING: probably wrong pi occupation for system 5. Second attempt with Nel=Nel-1!
 at,nb,topo%hyb,Npiel:          26  C             3           2           1
 at,nb,topo%hyb,Npiel:          27  O             1           2           1
 at,nb,topo%hyb,Npiel:          31  N             3           3           2
 at,nb,topo%hyb,Npiel:          32  C             3           2           1

          eigenvalues
 #    :           1          2          3          4
 occ. :        2.000      1.987      0.013      0.000
 eps  :        -4.349     -2.183      1.305      3.389
Hueckel system :  5 charge :   0 ndim/Nel :    4    4   eps(HOMO/LUMO)   -2.182828    1.305315

  atom   neighbors  erfCN metchar sp-hybrid imet pi  qest     coordinates
    1   C      2    1.93   0.00        -2    0    1   0.120   -9.029111  -21.414376    2.456644
    2   O      1    0.98   0.00         2    0    1  -0.120  -11.022772  -20.299438    2.260112
    3   N      3    2.79   0.00        -3    0    1  -0.166   -6.831360  -20.306997    1.568473
    4   C      4    3.49   0.00         3    0    0   0.005   -4.325583  -21.442722    1.477766
    5   C      3    2.80   0.00         2    0    1   0.174   -3.341036  -21.593900   -1.171630
    6   O      1    0.98   0.00         2    0    1  -0.352   -4.255663  -23.117020   -2.621050
    7   H      1    0.98   0.00         0    0    0   0.153   -6.973089  -18.670494    0.570697
    8   H      1    0.97   0.00         0    0    0   0.093   -3.040569  -20.356130    2.677742
    9   H      1    0.97   0.00         0    0    0   0.093   -4.365267  -23.362684    2.252554
   10   N      3    2.79   0.00        -3    0    1  -0.168   -1.434302  -19.972515   -1.882167
   11   C      4    3.49   0.00         3    0    0   0.006   -0.704868  -19.798661   -4.512666
   12   C      3    2.79   0.00         2    0    1   0.175   -1.458869  -17.256979   -5.578472
   13   O      1    0.98   0.00         2    0    1  -0.352   -3.463868  -16.363139   -4.915178
   14   H      1    0.98   0.00         0    0    0   0.154   -0.973209  -18.443727   -0.803134
   15   H      1    0.97   0.00         0    0    0   0.092    1.328477  -20.101017   -4.646837
   16   H      1    0.97   0.00         0    0    0   0.092   -1.670518  -21.291544   -5.540677
   17   N      3    2.79   0.00        -3    0    1  -0.167    0.043464  -15.990862   -7.305681
   18   C      4    3.49   0.00         3    0    0   0.005    2.501997  -16.793996   -8.242985
   19   C      3    2.80   0.00         2    0    1   0.178    2.874273  -16.022988  -10.967970
   20   O      1    0.98   0.00         2    0    1  -0.353    1.088482  -16.034326  -12.400383
   21   H      1    0.98   0.00         0    0    0   0.151   -0.633058  -14.399713   -8.140940
   22   H      1    0.97   0.00         0    0    0   0.093    3.981653  -16.062672   -7.052458
   23   H      1    0.97   0.01         0    0    0   0.093    2.596484  -18.882143   -8.188183
   24   N      3    2.79   0.00        -3    0    1  -0.170    5.264777  -15.342686  -11.765435
   25   C      4    3.49   0.00         3    0    0   0.006    5.678627  -14.375147  -14.297668
   26   C      3    2.79   0.00         2    0    1   0.195    5.977204  -11.531109  -14.259873
   27   O      1    0.98   0.00         2    0    1  -0.357    4.276450  -10.316015  -13.315010
   28   H      1    0.98   0.00         0    0    0   0.147    6.683961  -15.004425  -10.504988
   29   H      1    0.97   0.00         0    0    0   0.090    7.283004  -15.321899  -15.161273
   30   H      1    0.97   0.00         0    0    0   0.090    4.000550  -14.838130  -15.410717
   31   N      3    2.79   0.00         3    0    1  -0.226    8.050233  -10.259323  -15.238751
   32   C      3    2.78   0.00         2    0    1  -0.008   10.257433  -11.317570  -16.523765
   33   H      1    0.98   0.00         0    0    0   0.123    7.968975   -8.341251  -15.316230
   34   H      1    0.97   0.00         0    0    0   0.055   11.973305  -10.597584  -15.652601
   35   H      1    0.97   0.00         0    0    0   0.055   10.300897  -13.375482  -16.285660

molecular fragment  # atoms  topo charge
       1             2            -0.000
       2             7            -0.000
       3             7            -0.000
       4             7             0.000
       5             7             0.000
       6             5            -0.000


          #atoms :   35
          #bonds :   34

 bond atoms        type  in ring    R      R0    piBO    fqq  kbond(tot)  alp
 O  C     2    1      2    0     1.213   0.995   0.799   1.047  -0.252   0.584
 N  C     3    1      2    0     1.384   1.214   0.504   1.047  -0.235   0.524
 C  N     4    3      1    0     1.457   1.326 -99.000   1.033  -0.151   0.496
 C  C     5    4      1    0     1.498   1.332 -99.000   1.013  -0.162   0.475
 O  C     6    5      2    0     1.213   1.031   0.856   1.047  -0.262   0.584
 H  N     7    3      1    0     1.017   0.890 -99.000   1.047  -0.176   0.551
 H  C     8    4      1    0     1.094   0.976 -99.000   1.018  -0.164   0.482
 H  C     9    4      1    0     1.096   0.976 -99.000   1.018  -0.164   0.482
 N  C    10    5      2    0     1.377   1.263   0.503   1.047  -0.234   0.524
 C  N    11   10      1    0     1.447   1.326 -99.000   1.036  -0.151   0.496
 C  C    12   11      1    0     1.512   1.332 -99.000   1.011  -0.162   0.475
 O  C    13   12      2    0     1.214   1.031   0.856   1.047  -0.262   0.584
 H  N    14   10      1    0     1.020   0.890 -99.000   1.047  -0.176   0.551
 H  C    15   11      1    0     1.090   0.977 -99.000   1.016  -0.164   0.482
 H  C    16   11      1    0     1.087   0.977 -99.000   1.016  -0.164   0.482
 N  C    17   12      2    0     1.384   1.263   0.503   1.047  -0.234   0.524
 C  N    18   17      1    0     1.456   1.326 -99.000   1.033  -0.151   0.496
 C  C    19   18      1    0     1.511   1.332 -99.000   1.014  -0.162   0.475
 O  C    20   19      2    0     1.211   1.031   0.856   1.047  -0.262   0.584
 H  N    21   17      1    0     1.016   0.890 -99.000   1.047  -0.176   0.551
 H  C    22   18      1    0     1.077   0.976 -99.000   1.018  -0.164   0.482
 H  C    23   18      1    0     1.106   0.976 -99.000   1.018  -0.164   0.482
 N  C    24   19      2    0     1.381   1.263   0.504   1.047  -0.234   0.524
 C  N    25   24      1    0     1.451   1.326 -99.000   1.034  -0.151   0.496
 C  C    26   25      1    0     1.513   1.332 -99.000   1.011  -0.162   0.475
 O  C    27   26      2    0     1.214   1.018   0.930   1.047  -0.274   0.584
 H  N    28   24      1    0     1.020   0.890 -99.000   1.047  -0.176   0.551
 H  C    29   25      1    0     1.087   0.977 -99.000   1.018  -0.164   0.482
 H  C    30   25      1    0     1.093   0.976 -99.000   1.018  -0.164   0.482
 N  C    31   26      2    0     1.387   1.291   0.346   1.047  -0.203   0.524
 C  N    32   31      2    0     1.463   1.189   0.906   1.006  -0.302   0.524
 H  N    33   31      1    0     1.017   0.890 -99.000   1.047  -0.176   0.551
 H  C    34   32      1    0     1.087   0.950 -99.000   1.029  -0.179   0.490
 H  C    35   32      1    0     1.096   0.949 -99.000   1.029  -0.179   0.490
          #angl  :   55

 angle atoms        phi0    phi      FC  pi rings
    1    3    2   145.000 119.704   0.082 F   0
    3    4    1   115.000 126.958   0.411 F   0
    3    7    1   115.000 118.339   0.335 F   0
    3    7    4   104.000 113.662   0.182 F   0
    4    5    3   109.500 111.686   0.307 F   0
    4    8    3   109.500 109.264   0.253 F   0
    4    8    5   109.500 110.809   0.251 F   0
    4    9    3   109.500 110.657   0.253 F   0
    4    9    5   109.500 107.900   0.251 F   0
    4    9    8   108.600 106.387   0.209 F   0
    5    6    4   120.000 119.238   0.178 F   0
    5   10    4   120.000 118.506   0.243 F   0
    5   10    6   120.000 122.254   0.176 F   0
   10   11    5   115.000 119.846   0.409 F   0
   10   14    5   115.000 121.117   0.333 F   0
   10   14   11   104.000 115.101   0.182 F   0
   11   12   10   109.500 110.174   0.307 F   0
   11   15   10   109.500 108.453   0.253 F   0
   11   15   12   109.500 111.513   0.252 F   0
   11   16   10   109.500 108.046   0.253 F   0
   11   16   12   109.500 109.622   0.252 F   0
   11   16   15   108.600 108.953   0.209 F   0
   12   13   11   120.000 118.004   0.178 F   0
   12   17   11   120.000 121.685   0.243 F   0
   12   17   13   120.000 120.294   0.176 F   0
   17   18   12   115.000 126.648   0.409 F   0
   17   21   12   115.000 119.073   0.333 F   0
   17   21   18   104.000 114.115   0.182 F   0
   18   19   17   109.500 111.267   0.307 F   0
   18   22   17   109.500 110.215   0.253 F   0
   18   22   19   109.500 111.490   0.251 F   0
   18   23   17   109.500 108.844   0.253 F   0
   18   23   19   109.500 106.779   0.251 F   0
   18   23   22   108.600 108.100   0.209 F   0
   19   20   18   120.000 119.598   0.178 F   0
   19   24   18   120.000 118.763   0.242 F   0
   19   24   20   120.000 121.636   0.176 F   0
   24   25   19   115.000 120.817   0.409 F   0
   24   28   19   115.000 121.340   0.333 F   0
   24   28   25   104.000 115.512   0.182 F   0
   25   26   24   109.500 110.758   0.307 F   0
   25   29   24   109.500 110.098   0.253 F   0
   25   29   26   109.500 112.489   0.251 F   0
   25   30   24   109.500 107.207   0.253 F   0
   25   30   26   109.500 108.345   0.251 F   0
   25   30   29   108.600 107.740   0.209 F   0
   26   27   25   120.000 117.053   0.177 F   0
   26   31   25   120.000 124.058   0.241 F   0
   26   31   27   120.000 118.889   0.174 F   0
   31   32   26   113.000 128.256   0.042 F   0
   31   33   26   113.000 117.768   0.211 F   0
   31   33   32   113.000 113.400   0.105 F   0
   32   34   31   120.000 109.605   0.204 F   0
   32   35   31   120.000 110.090   0.204 F   0
   32   35   34   120.000 106.367   0.167 F   0
 torsion atoms        nrot   rings    phi0    phi      FC
    3    1    4    2   2      0     180.000 175.054   0.765
    3    1    7    2   2      0     180.000   7.515   1.135
    4    3    5    1   3      0     180.000 119.459   0.024
    4    3    5    7   3      0     180.000  48.575   0.032
    4    3    8    1   3      0     180.000 117.586   0.034
    4    3    8    7   3      0     180.000  74.380   0.045
    4    3    9    1   3      0     180.000   0.769   0.034
    4    3    9    7   3      0     180.000 168.802   0.045
    5    4    6    3   3      0     180.000  72.138   0.066
    5    4    6    8   3      0     180.000 165.791   0.115
    5    4    6    9   3      0     180.000  49.692   0.115
    5    4   10    3   3      0     180.000 107.287   0.041
    5    4   10    8   3      0     180.000  14.784   0.072
    5    4   10    9   3      0     180.000 130.883   0.072
   10    5   11    4   2      0     180.000 170.620   0.615
   10    5   11    6   2      0     180.000   8.786   0.833
   10    5   14    4   2      0     180.000  14.037   0.912
   10    5   14    6   2      0     180.000 165.370   1.236
   11   10   12    5   3      0     180.000 110.955   0.022
   11   10   12   14   3      0     180.000  46.977   0.032
   11   10   15    5   3      0     180.000 126.738   0.032
   11   10   15   14   3      0     180.000  75.331   0.045
   11   10   16    5   3      0     180.000   8.779   0.032
   11   10   16   14   3      0     180.000 166.711   0.045
   12   11   13   10   3      0     180.000  38.512   0.066
   12   11   13   15   3      0     180.000 158.996   0.115
   12   11   13   16   3      0     180.000  80.263   0.115
   12   11   17   10   3      0     180.000 142.979   0.041
   12   11   17   15   3      0     180.000  22.496   0.072
   12   11   17   16   3      0     180.000  98.246   0.072
   17   12   18   11   2      0     180.000   2.734   0.614
   17   12   18   13   2      0     180.000 178.791   0.832
   17   12   21   11   2      0     180.000 172.335   0.911
   17   12   21   13   2      0     180.000   6.141   1.235
   18   17   19   12   3      0     180.000 145.867   0.022
   18   17   19   21   3      0     180.000  29.411   0.032
   18   17   22   12   3      0     180.000  89.922   0.032
   18   17   22   21   3      0     180.000  94.800   0.045
   18   17   23   12   3      0     180.000  28.470   0.032
   18   17   23   21   3      0     180.000 146.808   0.045
   19   18   20   17   3      0     180.000  35.258   0.066
   19   18   20   22   3      0     180.000 158.745   0.115
   19   18   20   23   3      0     180.000  83.386   0.115
   19   18   24   17   3      0     180.000 145.338   0.041
   19   18   24   22   3      0     180.000  21.851   0.072
   19   18   24   23   3      0     180.000  96.018   0.072
   24   19   25   18   2      0     180.000 174.494   0.620
   24   19   25   20   2      0     180.000   6.114   0.840
   24   19   28   18   2      0     180.000  12.605   0.920
   24   19   28   20   2      0     180.000 168.004   1.247
   25   24   26   19   3      0     180.000 102.162   0.022
   25   24   26   28   3      0     180.000  60.730   0.032
   25   24   29   19   3      0     180.000 132.789   0.032
   25   24   29   28   3      0     180.000  64.319   0.045
   25   24   30   19   3      0     180.000  15.855   0.032
   25   24   30   28   3      0     180.000 178.747   0.045
   26   25   27   24   3      0     180.000  55.927   0.066
   26   25   27   29   3      0     180.000 179.612   0.115
   26   25   27   30   3      0     180.000  61.395   0.115
   26   25   31   24   3      0     180.000 124.322   0.041
   26   25   31   29   3      0     180.000   0.636   0.072
   26   25   31   30   3      0     180.000 118.357   0.072
   31   26   32   25   2      0     180.000   1.892   0.343
   31   26   32   27   2      0     180.000 177.856   0.465
   31   26   33   25   2      0     180.000 172.555   0.489
   31   26   33   27   2      0     180.000   7.192   0.663
   32   31   34   26   2      0     180.000 128.876   1.385
   32   31   34   33   2      0     180.000  60.123   1.974
   32   31   35   26   2      0     180.000  12.211   1.385
   32   31   35   33   2      0     180.000 176.789   1.974
 out-of-plane atoms          phi0    phi      FC
    3    7    1    4          0.000   9.928   0.133
    5    6   10    4          0.000   0.521  23.920
   10   14    5   11          0.000  20.163   0.125
   12   13   17   11          0.000  -1.297  23.974
   17   21   12   18          0.000   3.955   0.130
   19   20   24   18          0.000  -0.533  24.122
   24   28   19   25          0.000  15.484   0.116
   26   27   31   25          0.000  -0.209  28.543
   31   33   26   32          0.000   7.319  -0.052
   32   34   35   31          0.000  55.487   0.552
          #tors  :   80
          #nmol  :   6
          #optfrag :   6

 GFN-FF setup done.

           ------------------------------------------------- 
          |                   G F N - F F                   |
          |          A general generic force-field          |
          |                  Version 1.0.3                  | 
           ------------------------------------------------- 
      * Solvation model:               ALPB
        Solvent                        water
        Parameter file                 internal GFN-FF/ALPB
        Dielectric constant                8.0200E+01
        Reference state                gsolv [1 M gas/solution]
        Free energy shift                  3.6494E-04 Eh       2.2900E-01 kcal/mol
        Temperature                        2.9815E+02 K
        Density                            1.0000E+00 kg/L
        Solvent mass                       1.8000E+01 g/mol
        Interaction kernel             P16
        Born radius scaling (c1)           1.5056E+00
        Born radii integrator          GBOBC
        Born offset                        0.0000E+00 a0       0.0000E+00 AA
        H-bond correction              true
        Ion screening                  false
        Surface tension                    1.0000E-05 Eh       1.5569E+01 dyn/cm
        Grid points                               230 per atom
          Number of HB bonds (bound hydrogen)     310
          Number of HB bonds (unbound hydrogen)   42
          Number of XB bonds                      0

 E+G (total)                   0 d,  0 h,  0 min,  0.001 sec
 distance/D3 list               ...        0 min,  0.000 sec (  0.348%)
 non bonded repulsion           ...        0 min,  0.000 sec (  1.934%)
 dCN                            ...        0 min,  0.000 sec (  2.520%)
 EEQ energy and q               ...        0 min,  0.000 sec (  3.484%)
 D3                             ...        0 min,  0.000 sec (  6.382%)
 EEQ gradient                   ...        0 min,  0.000 sec (  3.494%)
 bonds                          ...        0 min,  0.000 sec (  0.741%)
 bend and torsion               ...        0 min,  0.000 sec (  3.219%)
 bonded ATM                     ...        0 min,  0.000 sec (  1.257%)
 HB/XB (incl list setup)        ...        0 min,  0.000 sec (  8.152%)
 GBSA                           ...        0 min,  0.001 sec ( 70.148%)

         :::::::::::::::::::::::::::::::::::::::::::::::::::::
         ::                     SUMMARY                     ::
         :::::::::::::::::::::::::::::::::::::::::::::::::::::
         :: total energy              -6.227833831426 Eh    ::
         :: total w/o Gsolv           -6.188738674255 Eh    ::
         :: total w/o Gsasa/hb        -6.223177923573 Eh    ::
         :: gradient norm              0.186971962024 Eh/a0 ::
         ::.................................................::
         :: bond energy               -6.274177320097 Eh    ::
         :: angle energy               0.029518686531 Eh    ::
         :: torsion energy             0.013528618075 Eh    ::
         :: repulsion energy           0.380028005397 Eh    ::
         :: electrostat energy        -0.307606148791 Eh    ::
         :: dispersion energy         -0.022565235835 Eh    ::
         :: HB energy                 -0.000599749052 Eh    ::
         :: XB energy                  0.000000000000 Eh    ::
         :: bonded atm energy         -0.006865530482 Eh    ::
         :: external energy            0.000000000000 Eh    ::
         :: -> Gsolv                  -0.039095157171 Eh    ::
         ::    -> Gborn               -0.034439249318 Eh    ::
         ::    -> Gsasa                0.009992798190 Eh    ::
         ::    -> Ghb                 -0.015013645298 Eh    ::
         ::    -> Gshift               0.000364939255 Eh    ::
         :: add. restraining           0.000000000000 Eh    ::
         :: total charge               0.000000000000 e     ::
         ::.................................................::
         :: atomisation energy         0.000000000000 Eh    ::
         :::::::::::::::::::::::::::::::::::::::::::::::::::::

      ----------------------------------------------------------- 
     |                   =====================                   |
     |                        A N C O P T                        |
     |                   =====================                   |
     |               Approximate Normal Coordinate               |
     |                Rational Function Optimizer                |
      ----------------------------------------------------------- 

          ...................................................
          :                      SETUP                      :
          :.................................................:
          :   optimization level         verytight          :
          :   max. optcycles                    10          :
          :   ANC micro-cycles                  10          :
          :   degrees of freedom                99          :
          :.................................................:
          :   RF solver                   davidson          :
          :   write xtbopt.log                true          :
          :   linear?                        false          :
          :   energy convergence         0.1000000E-06 Eh   :
          :   grad. convergence          0.2000000E-03 Eh/α :
          :   maxmium RF displ.          1.0000000          :
          :   Hlow (freq-cutoff)         0.1000000E-01      :
          :   Hmax (freq-cutoff)         5.0000000          :
          :   S6 in model hess.         20.0000000          :
          ...................................................

generating ANC from model Hessian ...
Using GFN-FF Lindh-Hessian
 Shifting diagonal of input Hessian by    0.0000000000000000     
 Lowest  eigenvalues of input Hessian
    0.000000    0.000000    0.000000    0.000000    0.000000    0.000000
    0.015272    0.017442    0.019162    0.028017    0.046554    0.071263
    0.073910    0.086958    0.093151    0.113702    0.116463    0.124599
 Highest eigenvalues
    3.319810    3.825441    3.852064    3.927980    4.070288    4.223371


........................................................................
.............................. CYCLE    1 ..............................
........................................................................
     iter. time                 ...        0 min,  0.001 sec
 * total energy  :    -6.2278338 Eh     change        0.0000000E+00 Eh
   gradient norm :     0.1869720 Eh/α   predicted     0.0000000E+00 (    NaN%)
   displ. norm   :     0.1155936 α      lambda       -0.1559491E-01
   maximum displ.:     0.0363619 α      in ANC's #50, #89, #39, ...

........................................................................
.............................. CYCLE    2 ..............................
........................................................................
     iter. time                 ...        0 min,  0.001 sec
 * total energy  :    -6.2384413 Eh     change       -0.1060751E-01 Eh
   gradient norm :     0.0727961 Eh/α   predicted    -0.7901678E-02 ( -25.51%)
   displ. norm   :     0.0750835 α      lambda       -0.4118562E-02
   maximum displ.:     0.0274592 α      in ANC's #50, #17, #89, ...

........................................................................
.............................. CYCLE    3 ..............................
........................................................................
     iter. time                 ...        0 min,  0.001 sec
 * total energy  :    -6.2407201 Eh     change       -0.2278720E-02 Eh
   gradient norm :     0.0220251 Eh/α   predicted    -0.2070955E-02 (  -9.12%)
   displ. norm   :     0.0292119 α      lambda       -0.3974678E-03
   maximum displ.:     0.0111819 α      in ANC's #33, #31, #15, ...

........................................................................
.............................. CYCLE    4 ..............................
........................................................................
     iter. time                 ...        0 min,  0.001 sec
 * total energy  :    -6.2410171 Eh     change       -0.2970784E-03 Eh
   gradient norm :     0.0131376 Eh/α   predicted    -0.1989072E-03 ( -33.05%)
   displ. norm   :     0.0397136 α      lambda       -0.2903201E-03
   maximum displ.:     0.0159960 α      in ANC's #33, #31, #11, ...

........................................................................
.............................. CYCLE    5 ..............................
........................................................................
     iter. time                 ...        0 min,  0.001 sec
 * total energy  :    -6.2411847 Eh     change       -0.1675501E-03 Eh
   gradient norm :     0.0055371 Eh/α   predicted    -0.1453944E-03 ( -13.22%)
   displ. norm   :     0.0140890 α      lambda       -0.3527715E-04
   maximum displ.:     0.0057592 α      in ANC's #33, #3, #31, ...

........................................................................
.............................. CYCLE    6 ..............................
........................................................................
     iter. time                 ...        0 min,  0.000 sec
 * total energy  :    -6.2412109 Eh     change       -0.2618987E-04 Eh
   gradient norm :     0.0042159 Eh/α   predicted    -0.1764870E-04 ( -32.61%)
   displ. norm   :     0.0153518 α      lambda       -0.2909412E-04
   maximum displ.:     0.0062451 α      in ANC's #33, #31, #22, ...

........................................................................
.............................. CYCLE    7 ..............................
........................................................................
     iter. time                 ...        0 min,  0.001 sec
 * total energy  :    -6.2412288 Eh     change       -0.1791043E-04 Eh
   gradient norm :     0.0024561 Eh/α   predicted    -0.1455363E-04 ( -18.74%)
   displ. norm   :     0.0057734 α      lambda       -0.5924732E-05
   maximum displ.:     0.0020076 α      in ANC's #4, #33, #22, ...

........................................................................
.............................. CYCLE    8 ..............................
........................................................................
     iter. time                 ...        0 min,  0.000 sec
 * total energy  :    -6.2412328 Eh     change       -0.4024420E-05 Eh
   gradient norm :     0.0012787 Eh/α   predicted    -0.2981684E-05 ( -25.91%)
   displ. norm   :     0.0060727 α      lambda       -0.2178433E-05
   maximum displ.:     0.0025473 α      in ANC's #4, #3, #29, ...

........................................................................
.............................. CYCLE    9 ..............................
........................................................................
     iter. time                 ...        0 min,  0.000 sec
 * total energy  :    -6.2412342 Eh     change       -0.1410946E-05 Eh
   gradient norm :     0.0007347 Eh/α   predicted    -0.1109931E-05 ( -21.33%)
   displ. norm   :     0.0017600 α      lambda       -0.3153109E-06
   maximum displ.:     0.0006425 α      in ANC's #3, #33, #25, ...

........................................................................
.............................. CYCLE   10 ..............................
........................................................................
     iter. time                 ...        0 min,  0.000 sec
 * total energy  :    -6.2412346 Eh     change       -0.3554068E-06 Eh
   gradient norm :     0.0003435 Eh/α   predicted    -0.1763551E-06 ( -50.38%)
   displ. norm   :     0.0017600 α      lambda        0.0000000E+00
   maximum displ.:     0.0006425 α      in ANC's #3, #33, #25, ...

   *** FAILED TO CONVERGE GEOMETRY OPTIMIZATION IN 10 ITERATIONS ***


 ANCopt (total)                0 d,  0 h,  0 min,  0.007 sec
 optimizer setup                ...        0 min,  0.000 sec (  0.840%)
 model hessian                  ...        0 min,  0.000 sec (  3.514%)
 ANC generation                 ...        0 min,  0.001 sec (  8.810%)
 coordinate transformation      ...        0 min,  0.000 sec (  0.428%)
 single point calculation       ...        0 min,  0.006 sec ( 75.044%)
 optimization log               ...        0 min,  0.000 sec (  5.921%)
 hessian update                 ...        0 min,  0.000 sec (  0.642%)
 rational function              ...        0 min,  0.000 sec (  2.726%)

================
 final structure:
================
ATOM      1  C   GLY A  10      -4.761 -11.284   1.327  1.00  0.00           C  
ATOM      2  O   GLY A  10      -5.843 -10.782   1.177  1.00  0.00           O  
ATOM      3  N   GLY A  11      -3.618 -10.744   0.832  1.00  0.00           N  
ATOM      4  CA  GLY A  11      -2.287 -11.351   0.783  1.00  0.00           C  
ATOM      5  C   GLY A  11      -1.768 -11.426  -0.619  1.00  0.00           C  
ATOM      6  O   GLY A  11      -2.251 -12.233  -1.386  1.00  0.00           O  
ATOM      7  H   GLY A  11      -3.690  -9.879   0.300  1.00  0.00           H  
ATOM      8  HA2 GLY A  11      -1.608 -10.773   1.417  1.00  0.00           H  
ATOM      9  HA3 GLY A  11      -2.315 -12.364   1.190  1.00  0.00           H  
ATOM     10  N   GLY A  12      -0.758 -10.570  -0.996  1.00  0.00           N  
ATOM     11  CA  GLY A  12      -0.373 -10.469  -2.385  1.00  0.00           C  
ATOM     12  C   GLY A  12      -0.773  -9.133  -2.953  1.00  0.00           C  
ATOM     13  O   GLY A  12      -1.832  -8.658  -2.599  1.00  0.00           O  
ATOM     14  H   GLY A  12      -0.514  -9.760  -0.425  1.00  0.00           H  
ATOM     15  HA2 GLY A  12       0.703 -10.638  -2.459  1.00  0.00           H  
ATOM     16  HA3 GLY A  12      -0.884 -11.268  -2.931  1.00  0.00           H  
ATOM     17  N   GLY A  13       0.021  -8.464  -3.867  1.00  0.00           N  
ATOM     18  CA  GLY A  13       1.318  -8.902  -4.375  1.00  0.00           C  
ATOM     19  C   GLY A  13       1.523  -8.479  -5.805  1.00  0.00           C  
ATOM     20  O   GLY A  13       0.578  -8.490  -6.564  1.00  0.00           O  
ATOM     21  H   GLY A  13      -0.337  -7.622  -4.310  1.00  0.00           H  
ATOM     22  HA2 GLY A  13       2.106  -8.498  -3.732  1.00  0.00           H  
ATOM     23  HA3 GLY A  13       1.375  -9.992  -4.331  1.00  0.00           H  
ATOM     24  N   GLY A  14       2.785  -8.121  -6.228  1.00  0.00           N  
ATOM     25  CA  GLY A  14       3.001  -7.600  -7.565  1.00  0.00           C  
ATOM     26  C   GLY A  14       3.154  -6.095  -7.546  1.00  0.00           C  
ATOM     27  O   GLY A  14       2.266  -5.455  -7.041  1.00  0.00           O  
ATOM     28  H   GLY A  14       3.537  -7.945  -5.561  1.00  0.00           H  
ATOM     29  HA2 GLY A  14       3.852  -8.109  -8.025  1.00  0.00           H  
ATOM     30  HA3 GLY A  14       2.114  -7.852  -8.156  1.00  0.00           H  
ATOM     31  N   GLY A  15       4.288  -5.463  -8.089  1.00  0.00           N  
ATOM     32  CA  GLY A  15       5.426  -5.962  -8.695  1.00  0.00           C  
ATOM     33  H   GLY A  15       4.221  -4.426  -8.106  1.00  0.00           H  
ATOM     34  HA2 GLY A  15       6.345  -5.606  -8.280  1.00  0.00           H  
ATOM     35  HA3 GLY A  15       5.432  -7.061  -8.640  1.00  0.00           H  
END

 Bond Distances (Angstroems)
 ---------------------------
C1-O2=1.2019         C1-N3=1.3581         O2-C1=1.2019         N3-C1=1.3581         N3-C4=1.4636         N3-H7=1.0184         
C4-N3=1.4636         C4-C5=1.4970         C4-H8=1.0949         C4-H9=1.0917         C5-C4=1.4970         C5-O6=1.2128         
C5-N10=1.3768        O6-C5=1.2128         H7-N3=1.0184         H8-C4=1.0949         H9-C4=1.0917         N10-C5=1.3768        
N10-C11=1.4448       N10-H14=1.0210       C11-N10=1.4448       C11-C12=1.5058       C11-H15=1.0922       C11-H16=1.0942       
C12-C11=1.5058       C12-O13=1.2140       C12-N17=1.3836       O13-C12=1.2140       H14-N10=1.0210       H15-C11=1.0922       
H16-C11=1.0942       N17-C12=1.3836       N17-C18=1.4600       N17-H21=1.0166       C18-N17=1.4600       C18-C19=1.5046       
C18-H22=1.0940       C18-H23=1.0926       C19-C18=1.5046       C19-O20=1.2119       C19-N24=1.3786       O20-C19=1.2119       
H21-N17=1.0166       H22-C18=1.0940       H23-C18=1.0926       N24-C19=1.3786       N24-C25=1.4515       N24-H28=1.0199       
C25-N24=1.4515       C25-C26=1.5122       C25-H29=1.0933       C25-H30=1.0948       C26-C25=1.5122       C26-O27=1.2048       
C26-N31=1.4077       O27-C26=1.2048       H28-N24=1.0199       H29-C25=1.0933       H30-C25=1.0948       N31-C26=1.4077       
N31-C32=1.3827       N31-H33=1.0384       C32-N31=1.3827       C32-H34=1.0701       C32-H35=1.1004       H33-N31=1.0384       
H34-C32=1.0701       H35-C32=1.1004       
 C  H  Rav=1.0918 sigma=0.0076  Rmin=1.0701  Rmax=1.1004    10
 C  C  Rav=1.5049 sigma=0.0054  Rmin=1.4970  Rmax=1.5122     4
 N  H  Rav=1.0229 sigma=0.0079  Rmin=1.0166  Rmax=1.0384     5
 N  C  Rav=1.4107 sigma=0.0381  Rmin=1.3581  Rmax=1.4636    10
 O  C  Rav=1.2091 sigma=0.0048  Rmin=1.2019  Rmax=1.2140     5

 selected bond angles (degree)
 --------------------
N3-C1-O2=123.07                C4-N3-C1=127.78                H7-N3-C1=117.94                H7-N3-C4=113.58                
C5-C4-N3=111.53                H8-C4-N3=109.01                H8-C4-C5=110.75                H9-C4-N3=110.43                
H9-C4-C5=108.17                H9-C4-H8=106.85                O6-C5-C4=119.18                N10-C5-C4=118.63               
N10-C5-O6=122.19               C11-N10-C5=120.12              H14-N10-C5=121.06              H14-N10-C11=114.77             

 selected dihedral angles (degree)
 ---------------------------------
C4-N3-C1-O2=189.54            H7-N3-C1-O2=359.23            C5-C4-N3-C1=121.89            C5-C4-N3-H7=311.82            
H8-C4-N3-C1=244.48            H8-C4-N3-H7= 74.41            H9-C4-N3-C1=  1.59            H9-C4-N3-H7=191.51            
O6-C5-C4-N3=287.49            O6-C5-C4-H8=165.89            O6-C5-C4-H9= 49.11            N10-C5-C4-N3=107.26           
N10-C5-C4-H8=345.67           N10-C5-C4-H9=228.89           C11-N10-C5-C4=189.45          C11-N10-C5-O6=  9.22          
H14-N10-C5-C4=345.65          H14-N10-C5-O6=165.42          
           -------------------------------------------------
          |                Final Singlepoint                |
           -------------------------------------------------
         :::::::::::::::::::::::::::::::::::::::::::::::::::::
         ::                     SUMMARY                     ::
         :::::::::::::::::::::::::::::::::::::::::::::::::::::
         :: total energy              -6.241234585343 Eh    ::
         :: total w/o Gsolv           -6.202449968326 Eh    ::
         :: total w/o Gsasa/hb        -6.236838840758 Eh    ::
         :: gradient norm              0.000400083442 Eh/a0 ::
         ::.................................................::
         :: bond energy               -6.298070134823 Eh    ::
         :: angle energy               0.027499095116 Eh    ::
         :: torsion energy             0.014873732515 Eh    ::
         :: repulsion energy           0.385154637916 Eh    ::
         :: electrostat energy        -0.308057263959 Eh    ::
         :: dispersion energy         -0.022570895595 Eh    ::
         :: HB energy                 -0.000593375291 Eh    ::
         :: XB energy                  0.000000000000 Eh    ::
         :: bonded atm energy         -0.006589981018 Eh    ::
         :: external energy            0.000000000000 Eh    ::
         :: -> Gsolv                  -0.038784617017 Eh    ::
         ::    -> Gborn               -0.034388872432 Eh    ::
         ::    -> Gsasa                0.010058009444 Eh    ::
         ::    -> Ghb                 -0.014818693284 Eh    ::
         ::    -> Gshift               0.000364939255 Eh    ::
         :: add. restraining           0.005904216814 Eh    ::
         :: total charge              -0.000000000000 e     ::
         ::.................................................::
         :: atomisation energy         0.000000000000 Eh    ::
         :::::::::::::::::::::::::::::::::::::::::::::::::::::

           -------------------------------------------------
          |                Property Printout                |
           -------------------------------------------------
           -------------------------------------------------
          |                Geometry Summary                 |
           -------------------------------------------------

      molecular mass/u    :      285.2570109
   center of mass at/Å    :       -0.0041952      -8.9723893      -3.6337152
  moments of inertia/u·Å² :        0.3889629E+03   0.6577147E+04   0.6723927E+04
rotational constants/cm⁻¹ :        0.4333995E-01   0.2563061E-02   0.2507111E-02

 * 29 selected distances

     #   Z          #   Z                                           value/Å
     1   6  C       3   7  N                                      1.3580909
     3   7  N       4   6  C                                      1.4636067 (max)
     5   6  C       6   8  O                                      1.2127846
     3   7  N       7   1  H                                      1.0183695
     4   6  C       8   1  H                                      1.0949104
     4   6  C       9   1  H                                      1.0916886
     5   6  C      10   7  N                                      1.3768146
    10   7  N      11   6  C                                      1.4447585
    12   6  C      13   8  O                                      1.2139568
    10   7  N      14   1  H                                      1.0210224
    11   6  C      15   1  H                                      1.0922069
    11   6  C      16   1  H                                      1.0942280
    12   6  C      17   7  N                                      1.3836189
    17   7  N      18   6  C                                      1.4599518
    19   6  C      20   8  O                                      1.2119180
    17   7  N      21   1  H                                      1.0165693 (min)
    18   6  C      22   1  H                                      1.0940099
    18   6  C      23   1  H                                      1.0925985
    19   6  C      24   7  N                                      1.3786308
    24   7  N      25   6  C                                      1.4514616
    26   6  C      27   8  O                                      1.2047968
    24   7  N      28   1  H                                      1.0199115
    25   6  C      29   1  H                                      1.0932931
    25   6  C      30   1  H                                      1.0947547
    26   6  C      31   7  N                                      1.4076761
    31   7  N      32   6  C                                      1.3826884
    31   7  N      33   1  H                                      1.0384446
    32   6  C      34   1  H                                      1.0701147
    32   6  C      35   1  H                                      1.1003982

 * 4 distinct bonds (by element types)

   Z      Z             #   av. dist./Å        max./Å        min./Å
   1 H    6 C          10     1.0918203     1.1003982     1.0701147
   1 H    7 N           5     1.0228635     1.0384446     1.0165693
   6 C    7 N          10     1.4107298     1.4636067     1.3580909
   6 C    8 O           4     1.2108641     1.2139568     1.2047968


optimized geometry written to: xtbopt.pdb


           -------------------------------------------------
          | TOTAL ENERGY               -6.241234585343 Eh   |
          | GRADIENT NORM               0.000400083442 Eh/α |
           -------------------------------------------------
########################################################################
[WARNING] Runtime exception occurred
-1- gfnff_setup: Could not read topology file.
########################################################################

------------------------------------------------------------------------
 unit  open   action     filename
   10 false : read       xtb_settings.inp
   10 false : read       substructure_38.pdb
   10 false : read       xtb_settings.inp
   10 false : written    gfnff_topo
   10 false : written    gfnff_adjacency
   10 false : written    gfnff_charges
   10 false : deleted    .xtboptok
   10 false : replaced   xtbopt.log
   11 false : created    .xtboptok
   11 false : replaced   gfnff_charges
   10 false : replaced   xtbopt.pdb

------------------------------------------------------------------------
 * finished run on 2025/05/27 at 09:37:48.102     
------------------------------------------------------------------------
 total:
 * wall-time:     0 d,  0 h,  0 min,  0.013 sec
 *  cpu-time:     0 d,  0 h,  0 min,  0.013 sec
 * ratio c/w:     0.999 speedup
 SCF:
 * wall-time:     0 d,  0 h,  0 min,  0.001 sec
 *  cpu-time:     0 d,  0 h,  0 min,  0.001 sec
 * ratio c/w:     1.000 speedup
 ANC optimizer:
 * wall-time:     0 d,  0 h,  0 min,  0.008 sec
 *  cpu-time:     0 d,  0 h,  0 min,  0.008 sec
 * ratio c/w:     0.999 speedup

