      -----------------------------------------------------------      
     |                   =====================                   |     
     |                           x T B                           |     
     |                   =====================                   |     
     |                         S. Grimme                         |     
     |          Mulliken Center for Theoretical Chemistry        |     
     |                    University of Bonn                     |     
      -----------------------------------------------------------      

   * xtb version 6.6.1 (8d0f1dd) compiled by 'conda@1efc2f54142f' on 2023-08-01

   xtb is free software: you can redistribute it and/or modify it under
   the terms of the GNU Lesser General Public License as published by
   the Free Software Foundation, either version 3 of the License, or
   (at your option) any later version.
   
   xtb is distributed in the hope that it will be useful,
   but WITHOUT ANY WARRANTY; without even the implied warranty of
   MERCHANTABILITY or FITNESS FOR A PARTICULAR PURPOSE.  See the
   GNU Lesser General Public License for more details.
   
   Cite this work as:
   * C. Bannwarth, E. Caldeweyher, S. Ehlert, A. Hansen, P. Pracht,
     J. Seibert, S. Spicher, S. Grimme, WIREs Comput. Mol. Sci., 2020, 11,
     e01493. DOI: 10.1002/wcms.1493
   
   for GFN2-xTB:
   * C. Bannwarth, S. Ehlert and S. Grimme., J. Chem. Theory Comput., 2019,
     15, 1652-1671. DOI: 10.1021/acs.jctc.8b01176
   for GFN1-xTB:
   * S. Grimme, C. Bannwarth, P. Shushkov, J. Chem. Theory Comput., 2017,
     13, 1989-2009. DOI: 10.1021/acs.jctc.7b00118
   for GFN0-xTB:
   * P. Pracht, E. Caldeweyher, S. Ehlert, S. Grimme, ChemRxiv, 2019, preprint.
     DOI: 10.26434/chemrxiv.8326202.v1
   for GFN-FF:
   * S. Spicher and S. Grimme, Angew. Chem. Int. Ed., 2020, 59, 15665-15673.
     DOI: 10.1002/anie.202004239
   
   for ALPB and GBSA implicit solvation:
   * S. Ehlert, M. Stahn, S. Spicher, S. Grimme, J. Chem. Theory Comput.,
     2021, 17, 4250-4261. DOI: 10.1021/acs.jctc.1c00471
   
   for DFT-D4:
   * E. Caldeweyher, C. Bannwarth and S. Grimme, J. Chem. Phys., 2017,
     147, 034112. DOI: 10.1063/1.4993215
   * E. Caldeweyher, S. Ehlert, A. Hansen, H. Neugebauer, S. Spicher,
     C. Bannwarth and S. Grimme, J. Chem. Phys., 2019, 150, 154122.
     DOI: 10.1063/1.5090222
   * E. Caldeweyher, J.-M. Mewes, S. Ehlert and S. Grimme, Phys. Chem. Chem. Phys.
     2020, 22, 8499-8512. DOI: 10.1039/D0CP00502A
   
   for sTDA-xTB:
   * S. Grimme and C. Bannwarth, J. Chem. Phys., 2016, 145, 054103.
     DOI: 10.1063/1.4959605
   
   in the mass-spec context:
   * V. Asgeirsson, C. Bauer and S. Grimme, Chem. Sci., 2017, 8, 4879.
     DOI: 10.1039/c7sc00601b
   * J. Koopman and S. Grimme, ACS Omega 2019, 4, 12, 15120-15133.
     DOI: 10.1021/acsomega.9b02011
   
   for metadynamics refer to:
   * S. Grimme, J. Chem. Theory Comput., 2019, 155, 2847-2862
     DOI: 10.1021/acs.jctc.9b00143
   
   for SPH calculations refer to:
   * S. Spicher and S. Grimme, J. Chem. Theory Comput., 2021, 17, 1701-1714
     DOI: 10.1021/acs.jctc.0c01306
   
   with help from (in alphabetical order)
   P. Atkinson, C. Bannwarth, F. Bohle, G. Brandenburg, E. Caldeweyher
   M. Checinski, S. Dohm, S. Ehlert, S. Ehrlich, I. Gerasimov, C. Hölzer
   A. Katbashev, J. Koopman, C. Lavigne, S. Lehtola, F. März, M. Müller,
   F. Musil, H. Neugebauer, J. Pisarek, C. Plett, P. Pracht, F. Pultar,
   J. Seibert, P. Shushkov, S. Spicher, M. Stahn, M. Steiner, T. Strunk,
   J. Stückrath, T. Rose, and J. Unsleber
   
 * started run on 2025/05/27 at 09:38:01.058     

           -------------------------------------------------
          |                Calculation Setup                |
           -------------------------------------------------

          program call               : xtb substructure_88.pdb --gfnff --input xtb_settings.inp --opt vtight --alpb water --verbose
          coordinate file            : substructure_88.pdb
          xtbhome directory          : /home/dargen3
          path for xtb               : /home/dargen3
          xcontrol input file        : xtb_settings.inp
          omp threads                :                     1

$$$$$$$$$$$$$$$$$$$$$$$$$$$$$$$$$$$$$$$$$$$$$$$$$$$$$$$$$$$$$$$$$$$$$$$$
 CONSTRAINTS & SCANS: DEBUG SECTION
$$$$$$$$$$$$$$$$$$$$$$$$$$$$$$$$$$$$$$$$$$$$$$$$$$$$$$$$$$$$$$$$$$$$$$$$
   ID    Z sym.   atoms
    1    6  C     1, 4, 5, 11, 12, 18, 19, 25, 26, 32
    2    8  O     2, 6, 13, 20, 27
    3    7  N     3, 10, 17, 24, 31
    4    1  H     7-9, 14-16, 21-23, 28-30, 33-35
> constrain
-> atoms: 1, 2, 3, 4, 5, 6, 7, 8, 9, 10, 11, 12, 13, 14, 15, 16, 18, 24, 25, 26, 27, 28, 29, 30, 31, 32, 33, 34, 35
--> 1: 1
--> 2: 2
--> 3: 3
--> 4: 4
--> 5: 5
--> 6: 6
--> 7: 7
--> 8: 8
--> 9: 9
--> 10: 10
--> 11: 11
--> 12: 12
--> 13: 13
--> 14: 14
--> 15: 15
--> 16: 16
--> 17: 18
--> 18: 24
--> 19: 25
--> 20: 26
--> 21: 27
--> 22: 28
--> 23: 29
--> 24: 30
--> 25: 31
--> 26: 32
--> 27: 33
--> 28: 34
--> 29: 35
-> force constant=1.0
$$$$$$$$$$$$$$$$$$$$$$$$$$$$$$$$$$$$$$$$$$$$$$$$$$$$$$$$$$$$$$$$$$$$$$$$
           -------------------------------------------------
          |                   Constraints                   |
           -------------------------------------------------

 * 29 constrained atom positions
   positions refering to input geometry

     #   Z                                   position/Å      displ./Å
     1   6 C     -4.7850004   -11.3490011     1.2660001     0.0000000
     2   8 O     -5.8460005   -10.7750010     1.1300001     0.0000000
     3   7 N     -3.6260003   -10.7670010     0.7840001     0.0000000
     4   6 C     -2.2890002   -11.3470011     0.7820001     0.0000000
     5   6 C     -1.7310002   -11.4520011    -0.6040001     0.0000000
     6   8 O     -2.1260002   -12.3310011    -1.3390001     0.0000000
     7   1 H     -3.7050003    -9.9170009     0.2320000     0.0000000
     8   1 H     -1.6340002   -10.7460010     1.4200001     0.0000000
     9   1 H     -2.3040002   -12.3540011     1.2140001     0.0000000
    10   7 N     -0.7890001   -10.5300010    -1.0010001     0.0000000
    11   6 C     -0.3730000   -10.4770010    -2.3880002     0.0000000
    12   6 C     -0.8050001    -9.1670009    -3.0090003     0.0000000
    13   8 O     -1.8950002    -8.7280008    -2.7070003     0.0000000
    14   1 H     -0.6310001    -9.6720009    -0.4700000     0.0000000
    15   1 H      0.7100001   -10.6000010    -2.4260002     0.0000000
    16   1 H     -0.8430001   -11.3030010    -2.9120003     0.0000000
    18   6 C      1.3240001    -8.8870008    -4.3620004     0.0000000
    24   7 N      2.7870003    -8.0940008    -6.2160006     0.0000000
    25   6 C      3.0050003    -7.6070007    -7.5660007     0.0000000
    26   6 C      3.1480003    -6.1010006    -7.5760007     0.0000000
    27   8 O      2.2280002    -5.4580005    -7.1130007     0.0000000
    28   1 H      3.5080003    -7.8470007    -5.5370005     0.0000000
    29   1 H      3.8620004    -8.1090008    -8.0070007     0.0000000
    30   1 H      2.1240002    -7.8760007    -8.1540008     0.0000000
    31   7 N      4.2530004    -5.4280005    -8.0770007     0.0000000
    32   6 C      5.4280005    -5.9890006    -8.7440008     0.0000000
    33   1 H      4.1970004    -4.4150004    -8.1470008     0.0000000
    34   1 H      6.3310006    -5.6020005    -8.2790008     0.0000000
    35   1 H      5.4530005    -7.0770007    -8.6140008     0.0000000

     applying 406 atom pairwise harmonic potentials
       applied force constant per pair:     0.0357143
     effective force constant per atom:     1.0000000
         constraining energy/grad norm:     0.0000000     0.0000000

     total constraint energy/grad norm:     0.0000000     0.0000000

          charge from pdb residues: 0

          entering GFN-FF setup routine... 35

          ==================== Thresholds ====================
          CN  :   150.00000
          rep :   500.00000
          disp:  2500.00000
          HB1 :   250.00000
          HB2 :   450.00000

          Pauling EN used:
          Z : 1  EN :  2.20
          Z : 6  EN :  2.55
          Z : 7  EN :  3.04
          Z : 8  EN :  3.44
          electric field strengths (au): 0.000

           ------------------------------------------------- 
          |           Force Field Initialization            |
           ------------------------------------------------- 

          distances ...
          ----------------------------------------
          generating topology and atomic info file ...
          pair mat ...
          computing topology distances matrix with Floyd-Warshall algo ...
          making topology EEQ charges ...
          #fragments for EEQ constrain from pdb file: 6
          ----------------------------------------
          generating topology and atomic info file ...
          pair mat ...
          computing topology distances matrix with Floyd-Warshall algo ...
          making topology EEQ charges ...
          #fragments for EEQ constrain from pdb file: 6
          rings ...
          # BATM   270
          # H in HB   15
          doing iterative Hueckel for 5 subsystem(s) ...
          iterative Hueckel run to get P ...
Hueckel system :  1 charge :   0 ndim/Nel :    3    3   eps(HOMO/LUMO)   -0.953512   -0.953512
Hueckel system :  2 charge :   0 ndim/Nel :    3    4   eps(HOMO/LUMO)   -0.911362   -0.911362
Hueckel system :  3 charge :   0 ndim/Nel :    3    4   eps(HOMO/LUMO)   -0.911922   -0.911922
Hueckel system :  4 charge :   0 ndim/Nel :    3    4   eps(HOMO/LUMO)   -0.910012   -0.910012
Hueckel system :  5 charge :   0 ndim/Nel :    4    5   eps(HOMO/LUMO)    1.305315    1.305315
WARNING: probably wrong pi occupation for system 5. Second attempt with Nel=Nel-1!
 at,nb,topo%hyb,Npiel:          26  C             3           2           1
 at,nb,topo%hyb,Npiel:          27  O             1           2           1
 at,nb,topo%hyb,Npiel:          31  N             3           3           2
 at,nb,topo%hyb,Npiel:          32  C             3           2           1

          eigenvalues
 #    :           1          2          3          4
 occ. :        2.000      1.987      0.013      0.000
 eps  :        -4.349     -2.183      1.305      3.389
Hueckel system :  5 charge :   0 ndim/Nel :    4    4   eps(HOMO/LUMO)   -2.182828    1.305315

  atom   neighbors  erfCN metchar sp-hybrid imet pi  qest     coordinates
    1   C      2    1.93   0.00        -2    0    1   0.120   -9.042340  -21.446502    2.392393
    2   O      1    0.98   0.00         2    0    1  -0.120  -11.047339  -20.361799    2.135391
    3   N      3    2.79   0.00        -3    0    1  -0.166   -6.852147  -20.346681    1.481545
    4   C      4    3.49   0.00         3    0    0   0.005   -4.325583  -21.442722    1.477766
    5   C      3    2.80   0.00         2    0    1   0.174   -3.271116  -21.641144   -1.141395
    6   O      1    0.98   0.00         2    0    1  -0.352   -4.017558  -23.302213   -2.530343
    7   H      1    0.98   0.00         0    0    0   0.153   -7.001435  -18.740414    0.438416
    8   H      1    0.97   0.00         0    0    0   0.093   -3.087812  -20.306997    2.683411
    9   H      1    0.97   0.00         0    0    0   0.093   -4.353929  -23.345677    2.294128
   10   N      3    2.79   0.00        -3    0    1  -0.168   -1.490994  -19.898816   -1.891616
   11   C      4    3.49   0.00         3    0    0   0.006   -0.704868  -19.798661   -4.512666
   12   C      3    2.79   0.00         2    0    1   0.175   -1.521230  -17.323119   -5.686186
   13   O      1    0.98   0.00         2    0    1  -0.352   -3.581031  -16.493530   -5.115489
   14   H      1    0.98   0.00         0    0    0   0.154   -1.192417  -18.277431   -0.888171
   15   H      1    0.97   0.00         0    0    0   0.092    1.341706  -20.031097   -4.584476
   16   H      1    0.97   0.00         0    0    0   0.092   -1.593039  -21.359574   -5.502882
   17   N      3    2.79   0.00        -3    0    1  -0.167   -0.011338  -16.051334   -7.396388
   18   C      4    3.49   0.00         3    0    0   0.005    2.501997  -16.793996   -8.242985
   19   C      3    2.80   0.00         2    0    1   0.178    2.904509  -16.096687  -10.986868
   20   O      1    0.98   0.00         2    0    1  -0.353    1.165961  -16.274321  -12.464634
   21   H      1    0.98   0.00         0    0    0   0.151   -0.719986  -14.513097   -8.301567
   22   H      1    0.97   0.00         0    0    0   0.093    3.921182  -15.964406   -7.046789
   23   H      1    0.97   0.01         0    0    0   0.093    2.668293  -18.872695   -8.114484
   24   N      3    2.79   0.00        -3    0    1  -0.170    5.266667  -15.295443  -11.746538
   25   C      4    3.49   0.00         3    0    0   0.006    5.678627  -14.375147  -14.297668
   26   C      3    2.79   0.00         2    0    1   0.195    5.948858  -11.529219  -14.316565
   27   O      1    0.98   0.00         2    0    1  -0.357    4.210310  -10.314125  -13.441622
   28   H      1    0.98   0.00         0    0    0   0.147    6.629159  -14.828681  -10.463414
   29   H      1    0.97   0.00         0    0    0   0.090    7.298122  -15.323789  -15.131037
   30   H      1    0.97   0.00         0    0    0   0.090    4.013778  -14.883483  -15.408827
   31   N      3    2.79   0.00         3    0    1  -0.226    8.037005  -10.257433  -15.263318
   32   C      3    2.78   0.00         2    0    1  -0.008   10.257433  -11.317570  -16.523765
   33   H      1    0.98   0.00         0    0    0   0.123    7.931181   -8.343141  -15.395599
   34   H      1    0.97   0.00         0    0    0   0.055   11.963856  -10.586246  -15.645043
   35   H      1    0.97   0.00         0    0    0   0.055   10.304677  -13.373592  -16.278101

molecular fragment  # atoms  topo charge
       1             2            -0.000
       2             7            -0.000
       3             7            -0.000
       4             7             0.000
       5             7             0.000
       6             5            -0.000


          #atoms :   35
          #bonds :   34

 bond atoms        type  in ring    R      R0    piBO    fqq  kbond(tot)  alp
 O  C     2    1      2    0     1.214   0.995   0.799   1.047  -0.252   0.584
 N  C     3    1      2    0     1.384   1.214   0.504   1.047  -0.235   0.524
 C  N     4    3      1    0     1.457   1.326 -99.000   1.033  -0.151   0.496
 C  C     5    4      1    0     1.498   1.332 -99.000   1.013  -0.162   0.475
 O  C     6    5      2    0     1.212   1.031   0.856   1.047  -0.262   0.584
 H  N     7    3      1    0     1.017   0.890 -99.000   1.047  -0.176   0.551
 H  C     8    4      1    0     1.094   0.976 -99.000   1.018  -0.164   0.482
 H  C     9    4      1    0     1.096   0.976 -99.000   1.018  -0.164   0.482
 N  C    10    5      2    0     1.377   1.263   0.503   1.047  -0.234   0.524
 C  N    11   10      1    0     1.449   1.326 -99.000   1.036  -0.151   0.496
 C  C    12   11      1    0     1.513   1.332 -99.000   1.011  -0.162   0.475
 O  C    13   12      2    0     1.213   1.031   0.856   1.047  -0.262   0.584
 H  N    14   10      1    0     1.021   0.890 -99.000   1.047  -0.176   0.551
 H  C    15   11      1    0     1.091   0.977 -99.000   1.016  -0.164   0.482
 H  C    16   11      1    0     1.085   0.977 -99.000   1.016  -0.164   0.482
 N  C    17   12      2    0     1.382   1.263   0.503   1.047  -0.234   0.524
 C  N    18   17      1    0     1.457   1.326 -99.000   1.033  -0.151   0.496
 C  C    19   18      1    0     1.513   1.332 -99.000   1.014  -0.162   0.475
 O  C    20   19      2    0     1.211   1.031   0.856   1.047  -0.262   0.584
 H  N    21   17      1    0     1.016   0.890 -99.000   1.047  -0.176   0.551
 H  C    22   18      1    0     1.076   0.976 -99.000   1.018  -0.164   0.482
 H  C    23   18      1    0     1.106   0.976 -99.000   1.018  -0.164   0.482
 N  C    24   19      2    0     1.380   1.263   0.504   1.047  -0.234   0.524
 C  N    25   24      1    0     1.452   1.326 -99.000   1.034  -0.151   0.496
 C  C    26   25      1    0     1.513   1.332 -99.000   1.011  -0.162   0.475
 O  C    27   26      2    0     1.214   1.018   0.930   1.047  -0.274   0.584
 H  N    28   24      1    0     1.021   0.890 -99.000   1.047  -0.176   0.551
 H  C    29   25      1    0     1.087   0.977 -99.000   1.018  -0.164   0.482
 H  C    30   25      1    0     1.093   0.976 -99.000   1.018  -0.164   0.482
 N  C    31   26      2    0     1.387   1.291   0.346   1.047  -0.203   0.524
 C  N    32   31      2    0     1.463   1.189   0.906   1.006  -0.302   0.524
 H  N    33   31      1    0     1.017   0.890 -99.000   1.047  -0.176   0.551
 H  C    34   32      1    0     1.087   0.950 -99.000   1.029  -0.179   0.490
 H  C    35   32      1    0     1.096   0.949 -99.000   1.029  -0.179   0.490
          #angl  :   55

 angle atoms        phi0    phi      FC  pi rings
    1    3    2   145.000 119.617   0.082 F   0
    3    4    1   115.000 126.981   0.411 F   0
    3    7    1   115.000 118.410   0.335 F   0
    3    7    4   104.000 113.785   0.182 F   0
    4    5    3   109.500 111.774   0.307 F   0
    4    8    3   109.500 109.255   0.253 F   0
    4    8    5   109.500 110.796   0.251 F   0
    4    9    3   109.500 110.647   0.253 F   0
    4    9    5   109.500 107.786   0.251 F   0
    4    9    8   108.600 106.443   0.209 F   0
    5    6    4   120.000 119.380   0.178 F   0
    5   10    4   120.000 118.349   0.243 F   0
    5   10    6   120.000 122.268   0.176 F   0
   10   11    5   115.000 119.802   0.409 F   0
   10   14    5   115.000 121.237   0.333 F   0
   10   14   11   104.000 114.994   0.182 F   0
   11   12   10   109.500 110.037   0.307 F   0
   11   15   10   109.500 108.319   0.253 F   0
   11   15   12   109.500 111.527   0.252 F   0
   11   16   10   109.500 108.059   0.253 F   0
   11   16   12   109.500 109.708   0.252 F   0
   11   16   15   108.600 109.111   0.209 F   0
   12   13   11   120.000 117.886   0.178 F   0
   12   17   11   120.000 121.693   0.243 F   0
   12   17   13   120.000 120.408   0.176 F   0
   17   18   12   115.000 126.692   0.409 F   0
   17   21   12   115.000 119.035   0.333 F   0
   17   21   18   104.000 114.071   0.182 F   0
   18   19   17   109.500 110.956   0.307 F   0
   18   22   17   109.500 110.251   0.253 F   0
   18   22   19   109.500 111.519   0.251 F   0
   18   23   17   109.500 108.785   0.253 F   0
   18   23   19   109.500 106.884   0.251 F   0
   18   23   22   108.600 108.315   0.209 F   0
   19   20   18   120.000 119.585   0.178 F   0
   19   24   18   120.000 118.817   0.242 F   0
   19   24   20   120.000 121.595   0.176 F   0
   24   25   19   115.000 120.670   0.409 F   0
   24   28   19   115.000 121.363   0.333 F   0
   24   28   25   104.000 115.555   0.182 F   0
   25   26   24   109.500 110.752   0.307 F   0
   25   29   24   109.500 109.929   0.253 F   0
   25   29   26   109.500 112.497   0.251 F   0
   25   30   24   109.500 107.262   0.253 F   0
   25   30   26   109.500 108.523   0.251 F   0
   25   30   29   108.600 107.680   0.209 F   0
   26   27   25   120.000 116.940   0.177 F   0
   26   31   25   120.000 124.094   0.241 F   0
   26   31   27   120.000 118.966   0.174 F   0
   31   32   26   113.000 128.192   0.042 F   0
   31   33   26   113.000 117.657   0.211 F   0
   31   33   32   113.000 113.255   0.105 F   0
   32   34   31   120.000 109.614   0.204 F   0
   32   35   31   120.000 110.176   0.204 F   0
   32   35   34   120.000 106.484   0.167 F   0
 torsion atoms        nrot   rings    phi0    phi      FC
    3    1    4    2   2      0     180.000 175.732   0.765
    3    1    7    2   2      0     180.000   6.819   1.135
    4    3    5    1   3      0     180.000 120.976   0.024
    4    3    5    7   3      0     180.000  48.372   0.032
    4    3    8    1   3      0     180.000 116.033   0.034
    4    3    8    7   3      0     180.000  74.619   0.045
    4    3    9    1   3      0     180.000   0.842   0.034
    4    3    9    7   3      0     180.000 168.506   0.045
    5    4    6    3   3      0     180.000  76.310   0.066
    5    4    6    8   3      0     180.000 161.579   0.115
    5    4    6    9   3      0     180.000  45.486   0.115
    5    4   10    3   3      0     180.000 103.117   0.041
    5    4   10    8   3      0     180.000  18.994   0.072
    5    4   10    9   3      0     180.000 135.087   0.072
   10    5   11    4   2      0     180.000 170.940   0.615
   10    5   11    6   2      0     180.000   8.469   0.833
   10    5   14    4   2      0     180.000  14.470   0.912
   10    5   14    6   2      0     180.000 164.940   1.236
   11   10   12    5   3      0     180.000 114.085   0.022
   11   10   12   14   3      0     180.000  43.791   0.032
   11   10   15    5   3      0     180.000 123.762   0.032
   11   10   15   14   3      0     180.000  78.362   0.045
   11   10   16    5   3      0     180.000   5.682   0.032
   11   10   16   14   3      0     180.000 163.558   0.045
   12   11   13   10   3      0     180.000  39.231   0.066
   12   11   13   15   3      0     180.000 159.464   0.115
   12   11   13   16   3      0     180.000  79.529   0.115
   12   11   17   10   3      0     180.000 142.070   0.041
   12   11   17   15   3      0     180.000  21.838   0.072
   12   11   17   16   3      0     180.000  99.169   0.072
   17   12   18   11   2      0     180.000   2.015   0.614
   17   12   18   13   2      0     180.000 179.319   0.832
   17   12   21   11   2      0     180.000 172.499   0.911
   17   12   21   13   2      0     180.000   6.167   1.235
   18   17   19   12   3      0     180.000 145.173   0.022
   18   17   19   21   3      0     180.000  29.575   0.032
   18   17   22   12   3      0     180.000  90.773   0.032
   18   17   22   21   3      0     180.000  94.480   0.045
   18   17   23   12   3      0     180.000  27.865   0.032
   18   17   23   21   3      0     180.000 146.882   0.045
   19   18   20   17   3      0     180.000  36.785   0.066
   19   18   20   22   3      0     180.000 160.114   0.115
   19   18   20   23   3      0     180.000  81.678   0.115
   19   18   24   17   3      0     180.000 143.890   0.041
   19   18   24   22   3      0     180.000  20.562   0.072
   19   18   24   23   3      0     180.000  97.646   0.072
   24   19   25   18   2      0     180.000 173.980   0.620
   24   19   25   20   2      0     180.000   6.710   0.840
   24   19   28   18   2      0     180.000  12.389   0.920
   24   19   28   20   2      0     180.000 168.301   1.247
   25   24   26   19   3      0     180.000 105.336   0.022
   25   24   26   28   3      0     180.000  57.272   0.032
   25   24   29   19   3      0     180.000 129.730   0.032
   25   24   29   28   3      0     180.000  67.662   0.045
   25   24   30   19   3      0     180.000  12.925   0.032
   25   24   30   28   3      0     180.000 175.533   0.045
   26   25   27   24   3      0     180.000  57.225   0.066
   26   25   27   29   3      0     180.000 179.308   0.115
   26   25   27   30   3      0     180.000  60.266   0.115
   26   25   31   24   3      0     180.000 122.805   0.041
   26   25   31   29   3      0     180.000   0.663   0.072
   26   25   31   30   3      0     180.000 119.704   0.072
   31   26   32   25   2      0     180.000   3.820   0.343
   31   26   32   27   2      0     180.000 176.149   0.465
   31   26   33   25   2      0     180.000 172.181   0.489
   31   26   33   27   2      0     180.000   7.789   0.663
   32   31   34   26   2      0     180.000 129.644   1.385
   32   31   34   33   2      0     180.000  61.572   1.974
   32   31   35   26   2      0     180.000  12.781   1.385
   32   31   35   33   2      0     180.000 178.435   1.974
 out-of-plane atoms          phi0    phi      FC
    3    7    1    4          0.000   8.837   0.133
    5    6   10    4          0.000   0.520  23.920
   10   14    5   11          0.000  20.269   0.125
   12   13   17   11          0.000  -1.135  23.974
   17   21   12   18          0.000   4.396   0.130
   19   20   24   18          0.000  -0.604  24.122
   24   28   19   25          0.000  15.761   0.116
   26   27   31   25          0.000  -0.025  28.543
   31   33   26   32          0.000   9.124  -0.052
   32   34   35   31          0.000  55.343   0.552
          #tors  :   80
          #nmol  :   6
          #optfrag :   6

 GFN-FF setup done.

           ------------------------------------------------- 
          |                   G F N - F F                   |
          |          A general generic force-field          |
          |                  Version 1.0.3                  | 
           ------------------------------------------------- 
      * Solvation model:               ALPB
        Solvent                        water
        Parameter file                 internal GFN-FF/ALPB
        Dielectric constant                8.0200E+01
        Reference state                gsolv [1 M gas/solution]
        Free energy shift                  3.6494E-04 Eh       2.2900E-01 kcal/mol
        Temperature                        2.9815E+02 K
        Density                            1.0000E+00 kg/L
        Solvent mass                       1.8000E+01 g/mol
        Interaction kernel             P16
        Born radius scaling (c1)           1.5056E+00
        Born radii integrator          GBOBC
        Born offset                        0.0000E+00 a0       0.0000E+00 AA
        H-bond correction              true
        Ion screening                  false
        Surface tension                    1.0000E-05 Eh       1.5569E+01 dyn/cm
        Grid points                               230 per atom
          Number of HB bonds (bound hydrogen)     309
          Number of HB bonds (unbound hydrogen)   42
          Number of XB bonds                      0

 E+G (total)                   0 d,  0 h,  0 min,  0.001 sec
 distance/D3 list               ...        0 min,  0.000 sec (  0.287%)
 non bonded repulsion           ...        0 min,  0.000 sec (  2.137%)
 dCN                            ...        0 min,  0.000 sec (  3.073%)
 EEQ energy and q               ...        0 min,  0.000 sec (  4.163%)
 D3                             ...        0 min,  0.000 sec (  8.233%)
 EEQ gradient                   ...        0 min,  0.000 sec (  4.358%)
 bonds                          ...        0 min,  0.000 sec (  0.914%)
 bend and torsion               ...        0 min,  0.000 sec (  4.054%)
 bonded ATM                     ...        0 min,  0.000 sec (  1.504%)
 HB/XB (incl list setup)        ...        0 min,  0.000 sec (  8.585%)
 GBSA                           ...        0 min,  0.000 sec ( 64.846%)

         :::::::::::::::::::::::::::::::::::::::::::::::::::::
         ::                     SUMMARY                     ::
         :::::::::::::::::::::::::::::::::::::::::::::::::::::
         :: total energy              -6.227967854402 Eh    ::
         :: total w/o Gsolv           -6.189465648203 Eh    ::
         :: total w/o Gsasa/hb        -6.223449428985 Eh    ::
         :: gradient norm              0.186913775403 Eh/a0 ::
         ::.................................................::
         :: bond energy               -6.274479350186 Eh    ::
         :: angle energy               0.029476531877 Eh    ::
         :: torsion energy             0.013666114476 Eh    ::
         :: repulsion energy           0.380354353721 Eh    ::
         :: electrostat energy        -0.308591603623 Eh    ::
         :: dispersion energy         -0.022542344422 Eh    ::
         :: HB energy                 -0.000656242101 Eh    ::
         :: XB energy                  0.000000000000 Eh    ::
         :: bonded atm energy         -0.006693107944 Eh    ::
         :: external energy            0.000000000000 Eh    ::
         :: -> Gsolv                  -0.038502206199 Eh    ::
         ::    -> Gborn               -0.033983780782 Eh    ::
         ::    -> Gsasa                0.010110174265 Eh    ::
         ::    -> Ghb                 -0.014993538937 Eh    ::
         ::    -> Gshift               0.000364939255 Eh    ::
         :: add. restraining           0.000000000000 Eh    ::
         :: total charge               0.000000000000 e     ::
         ::.................................................::
         :: atomisation energy         0.000000000000 Eh    ::
         :::::::::::::::::::::::::::::::::::::::::::::::::::::

      ----------------------------------------------------------- 
     |                   =====================                   |
     |                        A N C O P T                        |
     |                   =====================                   |
     |               Approximate Normal Coordinate               |
     |                Rational Function Optimizer                |
      ----------------------------------------------------------- 

          ...................................................
          :                      SETUP                      :
          :.................................................:
          :   optimization level         verytight          :
          :   max. optcycles                    10          :
          :   ANC micro-cycles                  10          :
          :   degrees of freedom                99          :
          :.................................................:
          :   RF solver                   davidson          :
          :   write xtbopt.log                true          :
          :   linear?                        false          :
          :   energy convergence         0.1000000E-06 Eh   :
          :   grad. convergence          0.2000000E-03 Eh/α :
          :   maxmium RF displ.          1.0000000          :
          :   Hlow (freq-cutoff)         0.1000000E-01      :
          :   Hmax (freq-cutoff)         5.0000000          :
          :   S6 in model hess.         20.0000000          :
          ...................................................

generating ANC from model Hessian ...
Using GFN-FF Lindh-Hessian
 Shifting diagonal of input Hessian by    0.0000000000000000     
 Lowest  eigenvalues of input Hessian
    0.000000    0.000000    0.000000    0.000000    0.000000    0.000000
    0.015274    0.017613    0.019180    0.027998    0.046709    0.071147
    0.073180    0.086486    0.093250    0.113302    0.115165    0.123675
 Highest eigenvalues
    3.314458    3.824869    3.852919    3.927410    4.061915    4.222373


........................................................................
.............................. CYCLE    1 ..............................
........................................................................
     iter. time                 ...        0 min,  0.001 sec
 * total energy  :    -6.2279679 Eh     change        0.0000000E+00 Eh
   gradient norm :     0.1869138 Eh/α   predicted     0.0000000E+00 (    NaN%)
   displ. norm   :     0.1145457 α      lambda       -0.1556318E-01
   maximum displ.:     0.0376623 α      in ANC's #50, #89, #39, ...

........................................................................
.............................. CYCLE    2 ..............................
........................................................................
     iter. time                 ...        0 min,  0.001 sec
 * total energy  :    -6.2385602 Eh     change       -0.1059231E-01 Eh
   gradient norm :     0.0729686 Eh/α   predicted    -0.7883698E-02 ( -25.57%)
   displ. norm   :     0.0744495 α      lambda       -0.4140433E-02
   maximum displ.:     0.0288081 α      in ANC's #50, #17, #89, ...

........................................................................
.............................. CYCLE    3 ..............................
........................................................................
     iter. time                 ...        0 min,  0.001 sec
 * total energy  :    -6.2408505 Eh     change       -0.2290342E-02 Eh
   gradient norm :     0.0218832 Eh/α   predicted    -0.2081784E-02 (  -9.11%)
   displ. norm   :     0.0290453 α      lambda       -0.3937320E-03
   maximum displ.:     0.0108594 α      in ANC's #33, #31, #15, ...

........................................................................
.............................. CYCLE    4 ..............................
........................................................................
     iter. time                 ...        0 min,  0.001 sec
 * total energy  :    -6.2411430 Eh     change       -0.2925142E-03 Eh
   gradient norm :     0.0128753 Eh/α   predicted    -0.1970364E-03 ( -32.64%)
   displ. norm   :     0.0379605 α      lambda       -0.2725091E-03
   maximum displ.:     0.0151768 α      in ANC's #33, #31, #11, ...

........................................................................
.............................. CYCLE    5 ..............................
........................................................................
     iter. time                 ...        0 min,  0.001 sec
 * total energy  :    -6.2413003 Eh     change       -0.1572391E-03 Eh
   gradient norm :     0.0052599 Eh/α   predicted    -0.1364555E-03 ( -13.22%)
   displ. norm   :     0.0136856 α      lambda       -0.3314563E-04
   maximum displ.:     0.0056492 α      in ANC's #33, #3, #31, ...

........................................................................
.............................. CYCLE    6 ..............................
........................................................................
     iter. time                 ...        0 min,  0.001 sec
 * total energy  :    -6.2413249 Eh     change       -0.2468246E-04 Eh
   gradient norm :     0.0040265 Eh/α   predicted    -0.1658107E-04 ( -32.82%)
   displ. norm   :     0.0155415 α      lambda       -0.2829597E-04
   maximum displ.:     0.0064232 α      in ANC's #33, #22, #31, ...

........................................................................
.............................. CYCLE    7 ..............................
........................................................................
     iter. time                 ...        0 min,  0.001 sec
 * total energy  :    -6.2413425 Eh     change       -0.1751294E-04 Eh
   gradient norm :     0.0024612 Eh/α   predicted    -0.1415424E-04 ( -19.18%)
   displ. norm   :     0.0062833 α      lambda       -0.6177621E-05
   maximum displ.:     0.0021704 α      in ANC's #22, #33, #4, ...

........................................................................
.............................. CYCLE    8 ..............................
........................................................................
     iter. time                 ...        0 min,  0.001 sec
 * total energy  :    -6.2413467 Eh     change       -0.4227174E-05 Eh
   gradient norm :     0.0013393 Eh/α   predicted    -0.3108484E-05 ( -26.46%)
   displ. norm   :     0.0069845 α      lambda       -0.2471080E-05
   maximum displ.:     0.0025147 α      in ANC's #4, #3, #2, ...

........................................................................
.............................. CYCLE    9 ..............................
........................................................................
     iter. time                 ...        0 min,  0.001 sec
 * total energy  :    -6.2413483 Eh     change       -0.1625579E-05 Eh
   gradient norm :     0.0007953 Eh/α   predicted    -0.1255334E-05 ( -22.78%)
   displ. norm   :     0.0020601 α      lambda       -0.3929872E-06
   maximum displ.:     0.0008019 α      in ANC's #3, #33, #1, ...

........................................................................
.............................. CYCLE   10 ..............................
........................................................................
     iter. time                 ...        0 min,  0.001 sec
 * total energy  :    -6.2413487 Eh     change       -0.4381691E-06 Eh
   gradient norm :     0.0004005 Eh/α   predicted    -0.2105190E-06 ( -51.95%)
   displ. norm   :     0.0030793 α      lambda       -0.2703650E-06
   maximum displ.:     0.0014124 α      in ANC's #2, #4, #1, ...

   *** FAILED TO CONVERGE GEOMETRY OPTIMIZATION IN 10 ITERATIONS ***


 ANCopt (total)                0 d,  0 h,  0 min,  0.007 sec
 optimizer setup                ...        0 min,  0.000 sec (  0.865%)
 model hessian                  ...        0 min,  0.000 sec (  3.528%)
 ANC generation                 ...        0 min,  0.001 sec (  8.956%)
 coordinate transformation      ...        0 min,  0.000 sec (  0.464%)
 single point calculation       ...        0 min,  0.005 sec ( 74.721%)
 optimization log               ...        0 min,  0.000 sec (  5.673%)
 hessian update                 ...        0 min,  0.000 sec (  0.691%)
 rational function              ...        0 min,  0.000 sec (  2.931%)

================
 final structure:
================
ATOM      1  C   GLY A  10      -4.770 -11.302   1.291  1.00  0.00           C  
ATOM      2  O   GLY A  10      -5.855 -10.815   1.112  1.00  0.00           O  
ATOM      3  N   GLY A  11      -3.629 -10.766   0.785  1.00  0.00           N  
ATOM      4  CA  GLY A  11      -2.287 -11.351   0.783  1.00  0.00           C  
ATOM      5  C   GLY A  11      -1.731 -11.451  -0.603  1.00  0.00           C  
ATOM      6  O   GLY A  11      -2.125 -12.331  -1.338  1.00  0.00           O  
ATOM      7  H   GLY A  11      -3.706  -9.916   0.229  1.00  0.00           H  
ATOM      8  HA2 GLY A  11      -1.633 -10.746   1.420  1.00  0.00           H  
ATOM      9  HA3 GLY A  11      -2.309 -12.355   1.212  1.00  0.00           H  
ATOM     10  N   GLY A  12      -0.788 -10.530  -1.001  1.00  0.00           N  
ATOM     11  CA  GLY A  12      -0.373 -10.469  -2.384  1.00  0.00           C  
ATOM     12  C   GLY A  12      -0.805  -9.169  -3.010  1.00  0.00           C  
ATOM     13  O   GLY A  12      -1.894  -8.727  -2.706  1.00  0.00           O  
ATOM     14  H   GLY A  12      -0.630  -9.672  -0.470  1.00  0.00           H  
ATOM     15  HA2 GLY A  12       0.710 -10.602  -2.426  1.00  0.00           H  
ATOM     16  HA3 GLY A  12      -0.843 -11.304  -2.911  1.00  0.00           H  
ATOM     17  N   GLY A  13      -0.006  -8.494  -3.915  1.00  0.00           N  
ATOM     18  CA  GLY A  13       1.318  -8.902  -4.376  1.00  0.00           C  
ATOM     19  C   GLY A  13       1.538  -8.518  -5.814  1.00  0.00           C  
ATOM     20  O   GLY A  13       0.617  -8.613  -6.596  1.00  0.00           O  
ATOM     21  H   GLY A  13      -0.381  -7.679  -4.393  1.00  0.00           H  
ATOM     22  HA2 GLY A  13       2.075  -8.448  -3.729  1.00  0.00           H  
ATOM     23  HA3 GLY A  13       1.412  -9.987  -4.294  1.00  0.00           H  
ATOM     24  N   GLY A  14       2.786  -8.096  -6.217  1.00  0.00           N  
ATOM     25  CA  GLY A  14       3.001  -7.601  -7.565  1.00  0.00           C  
ATOM     26  C   GLY A  14       3.138  -6.095  -7.576  1.00  0.00           C  
ATOM     27  O   GLY A  14       2.231  -5.455  -7.109  1.00  0.00           O  
ATOM     28  H   GLY A  14       3.508  -7.852  -5.539  1.00  0.00           H  
ATOM     29  HA2 GLY A  14       3.860  -8.111  -8.008  1.00  0.00           H  
ATOM     30  HA3 GLY A  14       2.122  -7.877  -8.155  1.00  0.00           H  
ATOM     31  N   GLY A  15       4.278  -5.463  -8.106  1.00  0.00           N  
ATOM     32  CA  GLY A  15       5.425  -5.962  -8.696  1.00  0.00           C  
ATOM     33  H   GLY A  15       4.201  -4.427  -8.147  1.00  0.00           H  
ATOM     34  HA2 GLY A  15       6.340  -5.599  -8.276  1.00  0.00           H  
ATOM     35  HA3 GLY A  15       5.435  -7.061  -8.635  1.00  0.00           H  
END

 Bond Distances (Angstroems)
 ---------------------------
C1-O2=1.2022         C1-N3=1.3581         O2-C1=1.2022         N3-C1=1.3581         N3-C4=1.4640         N3-H7=1.0183         
C4-N3=1.4640         C4-C5=1.4968         C4-H8=1.0951         C4-H9=1.0918         C5-C4=1.4968         C5-O6=1.2126         
C5-N10=1.3765        O6-C5=1.2126         H7-N3=1.0183         H8-C4=1.0951         H9-C4=1.0918         N10-C5=1.3765        
N10-C11=1.4456       N10-H14=1.0216       C11-N10=1.4456       C11-C12=1.5060       C11-H15=1.0923       C11-H16=1.0938       
C12-C11=1.5060       C12-O13=1.2140       C12-N17=1.3831       O13-C12=1.2140       H14-N10=1.0216       H15-C11=1.0923       
H16-C11=1.0938       N17-C12=1.3831       N17-C18=1.4599       N17-H21=1.0166       C18-N17=1.4599       C18-C19=1.5045       
C18-H22=1.0940       C18-H23=1.0925       C19-C18=1.5045       C19-O20=1.2120       C19-N24=1.3784       O20-C19=1.2120       
H21-N17=1.0166       H22-C18=1.0940       H23-C18=1.0925       N24-C19=1.3784       N24-C25=1.4516       N24-H28=1.0201       
C25-N24=1.4516       C25-C26=1.5121       C25-H29=1.0930       C25-H30=1.0948       C26-C25=1.5121       C26-O27=1.2048       
C26-N31=1.4072       O27-C26=1.2048       H28-N24=1.0201       H29-C25=1.0930       H30-C25=1.0948       N31-C26=1.4072       
N31-C32=1.3826       N31-H33=1.0389       C32-N31=1.3826       C32-H34=1.0702       C32-H35=1.1003       H33-N31=1.0389       
H34-C32=1.0702       H35-C32=1.1003       
 C  H  Rav=1.0918 sigma=0.0075  Rmin=1.0702  Rmax=1.1003    10
 C  C  Rav=1.5048 sigma=0.0055  Rmin=1.4968  Rmax=1.5121     4
 N  H  Rav=1.0231 sigma=0.0081  Rmin=1.0166  Rmax=1.0389     5
 N  C  Rav=1.4107 sigma=0.0383  Rmin=1.3581  Rmax=1.4640    10
 O  C  Rav=1.2091 sigma=0.0047  Rmin=1.2022  Rmax=1.2140     5

 selected bond angles (degree)
 --------------------
N3-C1-O2=122.87                C4-N3-C1=127.80                H7-N3-C1=117.98                H7-N3-C4=113.69                
C5-C4-N3=111.63                H8-C4-N3=109.05                H8-C4-C5=110.70                H9-C4-N3=110.40                
H9-C4-C5=108.05                H9-C4-H8=106.90                O6-C5-C4=119.29                N10-C5-C4=118.53               
N10-C5-O6=122.19               C11-N10-C5=120.13              H14-N10-C5=121.16              H14-N10-C11=114.66             

 selected dihedral angles (degree)
 ---------------------------------
C4-N3-C1-O2=188.72            H7-N3-C1-O2=359.86            C5-C4-N3-C1=123.44            C5-C4-N3-H7=311.99            
H8-C4-N3-C1=246.07            H8-C4-N3-H7= 74.62            H9-C4-N3-C1=  3.24            H9-C4-N3-H7=191.78            
O6-C5-C4-N3=283.40            O6-C5-C4-H8=161.72            O6-C5-C4-H9= 44.97            N10-C5-C4-N3=103.07           
N10-C5-C4-H8=341.39           N10-C5-C4-H9=224.64           C11-N10-C5-C4=189.15          C11-N10-C5-O6=  8.81          
H14-N10-C5-C4=345.33          H14-N10-C5-O6=164.99          
           -------------------------------------------------
          |                Final Singlepoint                |
           -------------------------------------------------
         :::::::::::::::::::::::::::::::::::::::::::::::::::::
         ::                     SUMMARY                     ::
         :::::::::::::::::::::::::::::::::::::::::::::::::::::
         :: total energy              -6.241349060819 Eh    ::
         :: total w/o Gsolv           -6.203137134850 Eh    ::
         :: total w/o Gsasa/hb        -6.237093381488 Eh    ::
         :: gradient norm              0.000235735969 Eh/a0 ::
         ::.................................................::
         :: bond energy               -6.298070204732 Eh    ::
         :: angle energy               0.027508186160 Eh    ::
         :: torsion energy             0.014959807467 Eh    ::
         :: repulsion energy           0.385092269193 Eh    ::
         :: electrostat energy        -0.308918109446 Eh    ::
         :: dispersion energy         -0.022548546562 Eh    ::
         :: HB energy                 -0.000648140268 Eh    ::
         :: XB energy                  0.000000000000 Eh    ::
         :: bonded atm energy         -0.006411497166 Eh    ::
         :: external energy            0.000000000000 Eh    ::
         :: -> Gsolv                  -0.038211925968 Eh    ::
         ::    -> Gborn               -0.033956246638 Eh    ::
         ::    -> Gsasa                0.010173225728 Eh    ::
         ::    -> Ghb                 -0.014793844313 Eh    ::
         ::    -> Gshift               0.000364939255 Eh    ::
         :: add. restraining           0.005899100503 Eh    ::
         :: total charge               0.000000000000 e     ::
         ::.................................................::
         :: atomisation energy         0.000000000000 Eh    ::
         :::::::::::::::::::::::::::::::::::::::::::::::::::::

           -------------------------------------------------
          |                Property Printout                |
           -------------------------------------------------
           -------------------------------------------------
          |                Geometry Summary                 |
           -------------------------------------------------

      molecular mass/u    :      285.2570109
   center of mass at/Å    :       -0.0056566      -8.9942643      -3.6565620
  moments of inertia/u·Å² :        0.3960629E+03   0.6573009E+04   0.6725256E+04
rotational constants/cm⁻¹ :        0.4256301E-01   0.2564675E-02   0.2506616E-02

 * 29 selected distances

     #   Z          #   Z                                           value/Å
     1   6  C       3   7  N                                      1.3580802
     3   7  N       4   6  C                                      1.4639552 (max)
     5   6  C       6   8  O                                      1.2126228
     3   7  N       7   1  H                                      1.0182889
     4   6  C       8   1  H                                      1.0951322
     4   6  C       9   1  H                                      1.0918387
     5   6  C      10   7  N                                      1.3764926
    10   7  N      11   6  C                                      1.4456340
    12   6  C      13   8  O                                      1.2139608
    10   7  N      14   1  H                                      1.0216469
    11   6  C      15   1  H                                      1.0923461
    11   6  C      16   1  H                                      1.0938221
    12   6  C      17   7  N                                      1.3831005
    17   7  N      18   6  C                                      1.4598947
    19   6  C      20   8  O                                      1.2119578
    17   7  N      21   1  H                                      1.0165784 (min)
    18   6  C      22   1  H                                      1.0940425
    18   6  C      23   1  H                                      1.0925026
    19   6  C      24   7  N                                      1.3783654
    24   7  N      25   6  C                                      1.4515514
    26   6  C      27   8  O                                      1.2048442
    24   7  N      28   1  H                                      1.0200874
    25   6  C      29   1  H                                      1.0930405
    25   6  C      30   1  H                                      1.0948029
    26   6  C      31   7  N                                      1.4072057
    31   7  N      32   6  C                                      1.3825686
    31   7  N      33   1  H                                      1.0388681
    32   6  C      34   1  H                                      1.0702467
    32   6  C      35   1  H                                      1.1002911

 * 4 distinct bonds (by element types)

   Z      Z             #   av. dist./Å        max./Å        min./Å
   1 H    6 C          10     1.0918065     1.1002911     1.0702467
   1 H    7 N           5     1.0230940     1.0388681     1.0165784
   6 C    7 N          10     1.4106848     1.4639552     1.3580802
   6 C    8 O           4     1.2108464     1.2139608     1.2048442


optimized geometry written to: xtbopt.pdb


           -------------------------------------------------
          | TOTAL ENERGY               -6.241349060819 Eh   |
          | GRADIENT NORM               0.000235735969 Eh/α |
           -------------------------------------------------
########################################################################
[WARNING] Runtime exception occurred
-1- gfnff_setup: Could not read topology file.
########################################################################

------------------------------------------------------------------------
 unit  open   action     filename
   10 false : read       xtb_settings.inp
   10 false : read       substructure_88.pdb
   10 false : read       xtb_settings.inp
   10 false : written    gfnff_topo
   10 false : written    gfnff_adjacency
   10 false : written    gfnff_charges
   10 false : deleted    .xtboptok
   10 false : replaced   xtbopt.log
   11 false : created    .xtboptok
   11 false : replaced   gfnff_charges
   10 false : replaced   xtbopt.pdb

------------------------------------------------------------------------
 * finished run on 2025/05/27 at 09:38:01.070     
------------------------------------------------------------------------
 total:
 * wall-time:     0 d,  0 h,  0 min,  0.012 sec
 *  cpu-time:     0 d,  0 h,  0 min,  0.012 sec
 * ratio c/w:     1.000 speedup
 SCF:
 * wall-time:     0 d,  0 h,  0 min,  0.001 sec
 *  cpu-time:     0 d,  0 h,  0 min,  0.001 sec
 * ratio c/w:     1.001 speedup
 ANC optimizer:
 * wall-time:     0 d,  0 h,  0 min,  0.008 sec
 *  cpu-time:     0 d,  0 h,  0 min,  0.008 sec
 * ratio c/w:     1.000 speedup

