35
 energy: -6.228078011249 gnorm: 0.186739904027 xtb: 6.6.1 (8d0f1dd)
 C          -4.78500000000000      -11.34900000000000        1.26600000000000
 O          -5.84600000000000      -10.77500000000000        1.13000000000000
 N          -3.62600000000000      -10.76800000000000        0.78300000000000
 C          -2.28900000000000      -11.34700000000000        0.78200000000000
 C          -1.72900000000000      -11.45300000000000       -0.60300000000000
 O          -2.12100000000000      -12.33400000000000       -1.33700000000000
 H          -3.70500000000000       -9.91700000000000        0.23100000000000
 H          -1.63500000000000      -10.74600000000000        1.42000000000000
 H          -2.30400000000000      -12.35400000000000        1.21500000000000
 N          -0.79000000000000      -10.52800000000000       -1.00200000000000
 C          -0.37300000000000      -10.47700000000000       -2.38800000000000
 C          -0.80600000000000       -9.16900000000000       -3.01200000000000
 O          -1.89800000000000       -8.73100000000000       -2.71300000000000
 H          -0.63600000000000       -9.66900000000000       -0.47200000000000
 H           0.71100000000000      -10.59800000000000       -2.42600000000000
 H          -0.84100000000000      -11.30500000000000       -2.91000000000000
 N          -0.00700000000000       -8.49500000000000       -3.91700000000000
 C           1.32400000000000       -8.88700000000000       -4.36200000000000
 C           1.53900000000000       -8.52100000000000       -5.81400000000000
 O           0.62000000000000       -8.62200000000000       -6.59800000000000
 H          -0.38300000000000       -7.68200000000000       -4.39700000000000
 H           2.07300000000000       -8.44500000000000       -3.72900000000000
 H           1.41500000000000       -9.98700000000000       -4.29100000000000
 N           2.78700000000000       -8.09200000000000       -6.21500000000000
 C           3.00500000000000       -7.60700000000000       -7.56600000000000
 C           3.14700000000000       -6.10100000000000       -7.57900000000000
 O           2.22500000000000       -5.45800000000000       -7.11800000000000
 H           3.50500000000000       -7.83900000000000       -5.53600000000000
 H           3.86300000000000       -8.11000000000000       -8.00500000000000
 H           2.12400000000000       -7.87800000000000       -8.15400000000000
 N           4.25300000000000       -5.42800000000000       -8.07800000000000
 C           5.42800000000000       -5.98900000000000       -8.74400000000000
 H           4.19600000000000       -4.41600000000000       -8.15000000000000
 H           6.33100000000000       -5.60100000000000       -8.27900000000000
 H           5.45300000000000       -7.07700000000000       -8.61400000000000
35
 energy: -6.238651946501 gnorm: 0.073046263202 xtb: 6.6.1 (8d0f1dd)
 C          -4.77728653304581      -11.33526087933746        1.27164932180826
 O          -5.84441308030928      -10.78443762856464        1.13413190533924
 N          -3.63048891432507      -10.76701428755428        0.78171069380918
 C          -2.28982302351776      -11.34773005374240        0.78299504510454
 C          -1.72895892380453      -11.45216175644128       -0.60187771703756
 O          -2.11962463310702      -12.33433484471039       -1.33590450535821
 H          -3.70922145610467       -9.91872125981850        0.22482296265226
 H          -1.63576726175717      -10.74441918947566        1.42035403976646
 H          -2.30715641905322      -12.35245911466443        1.21562885109473
 N          -0.78985454747405      -10.52710840379919       -1.00114398592208
 C          -0.37280786031816      -10.47225503586271       -2.38559331618416
 C          -0.80670974411967       -9.17054902550983       -3.01322277443014
 O          -1.89715929230087       -8.73017532991141       -2.71205704696226
 H          -0.63649906799922       -9.66778345015193       -0.47142471554779
 H           0.71162186369697      -10.59737805938588       -2.42448006726588
 H          -0.84089454040712      -11.30610132688819       -2.90950729794175
 N          -0.00811332314391       -8.49830856659513       -3.92000411129752
 C           1.32120095527713       -8.89550427429592       -4.36896265223591
 C           1.53895289817497       -8.52169040296392       -5.81452527647520
 O           0.62090534990362       -8.62164038307179       -6.59889062338204
 H          -0.38319462206612       -7.68415511940311       -4.39938397816829
 H           2.07608340696902       -8.44742917168401       -3.72765994574651
 H           1.41306949934257       -9.98647784481653       -4.29476161218812
 N           2.78714923358570       -8.09428386417474       -6.21521182263285
 C           3.00385842310883       -7.60623987187087       -7.56509268741991
 C           3.14605454374319       -6.10348851899298       -7.57902071246215
 O           2.22699153348220       -5.46018500515909       -7.12106853095935
 H           3.50583271950806       -7.84259449798754       -5.53640788360338
 H           3.86382929883805       -8.11237343743547       -8.00498207902146
 H           2.12311502328602       -7.87949830737630       -8.15470531975229
 N           4.27203302146725       -5.44270414588705       -8.08611370637450
 C           5.41741822351963       -5.96960021715119       -8.71529741852645
 H           4.20458221169752       -4.42325879161079       -8.14524100977892
 H           6.33210881453541       -5.59487967146837       -8.27952268458055
 H           5.43816622271747       -7.06279826223701       -8.63122933831944
35
 energy: -6.240948933847 gnorm: 0.021848594525 xtb: 6.6.1 (8d0f1dd)
 C          -4.77344796284095      -11.32060197938753        1.27812806206649
 O          -5.84609583585518      -10.79221929691607        1.13220713184855
 N          -3.63251101619803      -10.76820053435012        0.78076736886652
 C          -2.28842581194205      -11.34957328824160        0.78384032265431
 C          -1.72843909219474      -11.45186917369343       -0.60116864945500
 O          -2.11875012356415      -12.33462648877821       -1.33509960462223
 H          -3.70922272124017       -9.91938908204864        0.22386219588173
 H          -1.63520601730955      -10.74411555671808        1.42066546589872
 H          -2.30778661572647      -12.35290074178410        1.21530413444418
 N          -0.78924594645970      -10.52746386480130       -1.00090473574417
 C          -0.37266776307716      -10.46885980630601       -2.38396020309578
 C          -0.80722621142862       -9.17151566846412       -3.01384272683084
 O          -1.89688981349847       -8.72973600429020       -2.71149461364885
 H          -0.63603408266680       -9.66783907676024       -0.47130290078801
 H           0.71175699705539      -10.59804794444909       -2.42468393013861
 H          -0.84033421738714      -11.30657150057171       -2.90895137010073
 N          -0.00943444054126       -8.50036273007547       -3.92228970463757
 C           1.31855395403721       -8.90162286959724       -4.37461250474327
 C           1.53901728478965       -8.52169132288149       -5.81474901139051
 O           0.62142805758315       -8.62177089692664       -6.59954613448048
 H          -0.38430510568837       -7.68580297987508       -4.40138207678016
 H           2.07525133990643       -8.44728106161609       -3.72754260228176
 H           1.41312193869834       -9.98657802749295       -4.29511972999671
 N           2.78684588312591       -8.09435760039272       -6.21558365062887
 C           3.00221692026497       -7.60298456796052       -7.56451636725363
 C           3.14083508992524       -6.10064609577725       -7.57913558137321
 O           2.22517668193673       -5.45890715716643       -7.12136463754516
 H           3.50562034227090       -7.84329861522156       -5.53685963178351
 H           3.86337539566869       -8.11185656026460       -8.00507183044612
 H           2.12264644048425       -7.87977529261849       -8.15516549228901
 N           4.28252051306550       -5.45546737536162       -8.09642597938109
 C           5.41858191879620       -5.95855304303793       -8.69653353982646
 H           4.20440290091769       -4.42574895711685       -8.14365920512703
 H           6.33790510813201       -5.59716207318773       -8.27742588806418
 H           5.43176601096056       -7.05760276586886       -8.63838237920755
35
 energy: -6.241240477864 gnorm: 0.012839877681 xtb: 6.6.1 (8d0f1dd)
 C          -4.77249371316704      -11.31448369084161        1.28188134595954
 O          -5.84791581852795      -10.79649169105052        1.12844472257839
 N          -3.63190895632890      -10.76908718607360        0.78071871543960
 C          -2.28736093725504      -11.35045176770806        0.78392877369349
 C          -1.72846215692647      -11.45195260953955       -0.60133497451391
 O          -2.11932343560276      -12.33442045172720       -1.33542182337455
 H          -3.70765791267071       -9.91866560613228        0.22573465796935
 H          -1.63452949910916      -10.74477008030475        1.42068013210568
 H          -2.30793424194582      -12.35374022646479        1.21463421918426
 N          -0.78905851627526      -10.52813424663192       -1.00122439483273
 C          -0.37285221675067      -10.46838910058133       -2.38396267560457
 C          -0.80717513188619       -9.17135240871822       -3.01366963891020
 O          -1.89678651736981       -8.72944251970134       -2.71119740724259
 H          -0.63547653664343       -9.66852978075452       -0.47141298610817
 H           0.71135570243422      -10.59897980034758       -2.42570899714771
 H          -0.84051857158109      -11.30643908365611       -2.90913322621628
 N          -0.00971385773721       -8.50003751453158       -3.92233083690942
 C           1.31774588050363       -8.90254995506237       -4.37588485761085
 C           1.53909073670968       -8.52137353280596       -5.81464940777207
 O           0.62139301361248       -8.62177007597338       -6.59957312204994
 H          -0.38472359088862       -7.68546301552610       -4.40123489115564
 H           2.07340221245783       -8.44615836585847       -3.72797415006640
 H           1.41394985169929       -9.98696868137832       -4.29384374541134
 N           2.78661738253143       -8.09384793187799       -6.21576882347603
 C           3.00192252156972       -7.60140859542820       -7.56437194703808
 C           3.13826120586832       -6.09756744444237       -7.57909383209754
 O           2.22490072261215       -5.45728817770150       -7.11937692050653
 H           3.50523812527461       -7.84284382566834       -5.53700726724676
 H           3.86283035089089       -8.11123987771093       -8.00526153165650
 H           2.12285368727238       -7.87958868870702       -8.15513224331846
 N           4.28174070189227       -5.45947417346260       -8.10127376198891
 C           5.42246475630840       -5.95920428977155       -8.69426707409826
 H           4.20156426365505       -4.42640047881584       -8.14605961818553
 H           6.33955364358869       -5.59819109227393       -8.27617148514896
 H           5.43400685178508       -7.05829403277014       -8.63568092724239
35
 energy: -6.241396218387 gnorm: 0.005237693499 xtb: 6.6.1 (8d0f1dd)
 C          -4.77147563023739      -11.30779736178185        1.28639278788131
 O          -5.85118459808711      -10.80436576514225        1.12091606997042
 N          -3.63091701668399      -10.76993463045829        0.78080785261800
 C          -2.28646767365459      -11.35107810494534        0.78388584154776
 C          -1.72849375585921      -11.45207191280062       -0.60154280888572
 O          -2.11977011879233      -12.33426826189220       -1.33581209378807
 H          -3.70586398806536       -9.91743028496774        0.22818453707276
 H          -1.63405809395754      -10.74534559997158        1.42062889906685
 H          -2.30820822171354      -12.35450647111905        1.21390423319017
 N          -0.78894208222573      -10.52869873523692       -1.00154548836117
 C          -0.37290995964889      -10.46830094556313       -2.38405209705324
 C          -0.80689743674421       -9.17096749786434       -3.01327232141578
 O          -1.89680197889643       -8.72943498325592       -2.71119519786657
 H          -0.63513238234577       -9.66904009904935       -0.47156510615105
 H           0.71106527215962      -10.59974856046951       -2.42658163303373
 H          -0.84046989228106      -11.30634524816048       -2.90924167288590
 N          -0.00953217743927       -8.49875559464591       -3.92139639925279
 C           1.31740579086770       -8.90236680302375       -4.37615789195783
 C           1.53918203110147       -8.52104713095813       -5.81417202232647
 O           0.62095730392572       -8.62173094720425       -6.59882778789140
 H          -0.38491541177425       -7.68435629824891       -4.40021297988289
 H           2.07105799314760       -8.44367637380621       -3.72831559343242
 H           1.41590811012723       -9.98689563364691       -4.29109796134615
 N           2.78624930050199       -8.09357021933211       -6.21615551788504
 C           3.00152904951532       -7.60007767652229       -7.56441293584936
 C           3.13652220001674       -6.09385046848294       -7.57872061246063
 O           2.22699433713222       -5.45475585537586       -7.11454300950812
 H           3.50495617249445       -7.84283726684455       -5.53745211643947
 H           3.86142769049940       -8.11097992720582       -8.00621417963123
 H           2.12241608177194       -7.87861042924162       -8.15502846340796
 N           4.27943509121953       -5.46337683990577       -8.10651137854376
 C           5.42578025994084       -5.96172789942758       -8.69465111803258
 H           4.19968683905858       -4.42773738856812       -8.14912348735914
 H           6.34023259070278       -5.59893775557504       -8.27540338388783
 H           5.43623430422355       -7.06037502930564       -8.63351496281098
35
 energy: -6.241420694875 gnorm: 0.004011015871 xtb: 6.6.1 (8d0f1dd)
 C          -4.77098501620861      -11.30564492200572        1.28806848628236
 O          -5.85245240429855      -10.80804652147299        1.11762083734196
 N          -3.63050926050245      -10.76957614095870        0.78126483484806
 C          -2.28655011305670      -11.35109141945696        0.78373153013839
 C          -1.72859915297190      -11.45211283055364       -0.60165412142912
 O          -2.11990400766221      -12.33423741534569       -1.33596200533450
 H          -3.70548448043524       -9.91686843064231        0.22877891186298
 H          -1.63396173008963      -10.74562456436613        1.42054361023310
 H          -2.30843164629160      -12.35462472248885        1.21367038516173
 N          -0.78899450978800      -10.52873002138436       -1.00162377366840
 C          -0.37292242874466      -10.46848673545832       -2.38416430198864
 C          -0.80675851370569       -9.17082238941004       -3.01312600345087
 O          -1.89688918538047       -8.72959224986346       -2.71138503219852
 H          -0.63515969845243       -9.66907513331747       -0.47162639880625
 H           0.71103810033323      -10.59979826178507       -2.42665294175084
 H          -0.84051292148252      -11.30635460347808       -2.90931320409112
 N          -0.00912131099045       -8.49795763325948       -3.92054839273324
 C           1.31760750365933       -8.90191514304330       -4.37575436273554
 C           1.53914654375598       -8.52112855784386       -5.81400625574303
 O           0.62066607080352       -8.62188130718003       -6.59840148028533
 H          -0.38467231392207       -7.68366854716481       -4.39941344889653
 H           2.07073242248727       -8.44272309819960       -3.72837667509008
 H           1.41671001319131       -9.98656692185051       -4.29011403063301
 N           2.78607857722888       -8.09376410437494       -6.21640080761336
 C           3.00141910376671       -7.60025279174675       -7.56458128717634
 C           3.13666199545297       -6.09347830441357       -7.57871974091903
 O           2.22822135132365       -5.45422532047518       -7.11297829189850
 H           3.50495690430626       -7.84323441065281       -5.53774161679690
 H           3.86102122829680       -8.11117468310350       -8.00662315612800
 H           2.12206272295954       -7.87830054696408       -8.15509636064318
 N           4.27854778405644       -5.46385379474209       -8.10749099135574
 C           5.42573100927850       -5.96242863066990       -8.69532775270328
 H           4.20008245369563       -4.42826114289598       -8.14958184423683
 H           6.33995698510996       -5.59859236576645       -8.27530940878885
 H           5.43626792427720       -7.06090633366534       -8.63370490877354
35
 energy: -6.241438215035 gnorm: 0.002468689567 xtb: 6.6.1 (8d0f1dd)
 C          -4.77028030713561      -11.30306744542247        1.29012217296100
 O          -5.85385788017677      -10.81256216244676        1.11383120451546
 N          -3.62994346660722      -10.76846938702654        0.78232865510869
 C          -2.28686965480142      -11.35107831428147        0.78345027661408
 C          -1.72880888591981      -11.45212968114059       -0.60181673769522
 O          -2.12011707390862      -12.33417698030244       -1.33612776686505
 H          -3.70525383968935       -9.91623022702046        0.22918016646695
 H          -1.63379599800739      -10.74610833092322        1.42041973006128
 H          -2.30874322172132      -12.35471308024702        1.21340820461028
 N          -0.78910500679646      -10.52867697882057       -1.00168791401984
 C          -0.37298356876604      -10.46874729313409       -2.38433697224408
 C          -0.80660944843524       -9.17065530533583       -3.01296133419552
 O          -1.89701258485401       -8.72977949594693       -2.71163208391331
 H          -0.63522125023973       -9.66907464906629       -0.47168183220070
 H           0.71101031606304      -10.59975720157039       -2.42662977092857
 H          -0.84070255837490      -11.30634606266621       -2.90944641497820
 N          -0.00838275842585       -8.49686775964336       -3.91922372262498
 C           1.31792657185165       -8.90148049797880       -4.37524663478624
 C           1.53901371298297       -8.52133017243627       -5.81395447828544
 O           0.62034150474257       -8.62218281414462       -6.59807350255485
 H          -0.38410569833974       -7.68272168312894       -4.39821373115862
 H           2.07102320869292       -8.44219191904585       -3.72852505845259
 H           1.41718553685786       -9.98621184952523       -4.28955625097862
 N           2.78587592132359       -8.09403693105840       -6.21668043610564
 C           3.00134871641475       -7.60081214516761       -7.56483234285302
 C           3.13702282811626       -6.09396549521721       -7.57897469307212
 O           2.22916726830967       -5.45415645209400       -7.11221833896190
 H           3.50498433457661       -7.84377649638563       -5.53805857545460
 H           3.86091754911256       -8.11145180498619       -8.00685289553196
 H           2.12174226298366       -7.87822405659317       -8.15524656134431
 N           4.27772302631194       -5.46363800160042       -8.10790375599531
 C           5.42514787461902       -5.96270070498790       -8.69586071857264
 H           4.20085384807337       -4.42857994843123       -8.14948559299556
 H           6.33955229034409       -5.59804629273566       -8.27528799544359
 H           5.43595643082297       -7.06105237948824       -8.63422429812526
35
 energy: -6.241442473155 gnorm: 0.001348020981 xtb: 6.6.1 (8d0f1dd)
 C          -4.77000898436900      -11.30210903170166        1.29082967376592
 O          -5.85430783269187      -10.81417682236225        1.11260345483204
 N          -3.62965922509333      -10.76768927116681        0.78304888250544
 C          -2.28703200166083      -11.35110753117435        0.78331419888117
 C          -1.72890536575361      -11.45208873041255       -0.60186766116222
 O          -2.12018413166639      -12.33414488939056       -1.33613656133241
 H          -3.70533358809851       -9.91611799421099        0.22909091744957
 H          -1.63372535980529      -10.74630788147571        1.42038085554000
 H          -2.30883315919630      -12.35470945072907        1.21336023315798
 N          -0.78915462161431      -10.52860868074071       -1.00167976206211
 C          -0.37301843890289      -10.46878130518912       -2.38437317057270
 C          -0.80656820404762       -9.17058063551883       -3.01288997446757
 O          -1.89707450371328       -8.72983613851963       -2.71172332229491
 H          -0.63525547690174       -9.66903465098098       -0.47168241295461
 H           0.71100406381313      -10.59969624736179       -2.42657170457540
 H          -0.84079013300888      -11.30632084499421       -2.90947375391266
 N          -0.00796104142739       -8.49639275594904       -3.91855528838117
 C           1.31800853268511       -8.90152719451536       -4.37519407774710
 C           1.53891583594643       -8.52141414177270       -5.81403651249275
 O           0.62029133369764       -8.62234366718484       -6.59814284823846
 H          -0.38375108215467       -7.68236747428496       -4.39770857839921
 H           2.07161144416835       -8.44264474441259       -3.72869043258604
 H           1.41680177347047       -9.98626197777124       -4.28988978626481
 N           2.78582492642902       -8.09404945923188       -6.21670709509848
 C           3.00134604949568       -7.60103762167830       -7.56490673479105
 C           3.13711126216604       -6.09453985293902       -7.57918004477358
 O           2.22903012476925       -5.45440395619288       -7.11266361121381
 H           3.50499529529354       -7.84387655489313       -5.53809316158253
 H           3.86109275355087       -8.11150165221992       -8.00674580508637
 H           2.12173940790168       -7.87835957768935       -8.15530458529925
 N           4.27767159800044       -5.46317764062510       -8.10762982285460
 C           5.42483203407256       -5.96247831283942       -8.69583103235020
 H           4.20107216943945       -4.42841725296122       -8.14911176017830
 H           6.33946204054309       -5.59804248584805       -8.27542918850878
 H           5.43575250466317       -7.06085357106176       -8.63440952695101
35
 energy: -6.241444099372 gnorm: 0.000789854567 xtb: 6.6.1 (8d0f1dd)
 C          -4.76985093181842      -11.30142934087022        1.29121978045354
 O          -5.85461715048272      -10.81528501442965        1.11182758834437
 N          -3.62934124896318      -10.76684104787518        0.78387855814580
 C          -2.28710546647714      -11.35118149712644        0.78322232209900
 C          -1.72896089204158      -11.45198811771821       -0.60186635057469
 O          -2.12017389254115      -12.33411651838533       -1.33605827446992
 H          -3.70557890950278       -9.91623691063428        0.22875691150047
 H          -1.63370107505587      -10.74636680893285        1.42038019055398
 H          -2.30885719998586      -12.35466447669683        1.21338724174092
 N          -0.78918464217861      -10.52851902717266       -1.00164005873942
 C          -0.37303488447112      -10.46868281238352       -2.38433063552609
 C          -0.80653285802414       -9.17047674920028       -3.01279454719752
 O          -1.89716511669761       -8.72990429719408       -2.71183367953888
 H          -0.63529757872539       -9.66894521007514       -0.47166644566110
 H           0.71101005994898      -10.59962390690721       -2.42649942758845
 H          -0.84079674476501      -11.30628719684186       -2.90943057284727
 N          -0.00745328353541       -8.49587984904853       -3.91780127231951
 C           1.31798312262488       -8.90182052849398       -4.37536745470276
 C           1.53881696892584       -8.52143356767410       -5.81416319041029
 O           0.62034184361790       -8.62248364412540       -6.59837200294145
 H          -0.38335559736429       -7.68212320618900       -4.39732670166631
 H           2.07256479510255       -8.44384797279736       -3.72897189215162
 H           1.41573363278534       -9.98658232360357       -4.29069154772249
 N           2.78583029996366       -8.09391601392916       -6.21661494811831
 C           3.00135398029388       -7.60106106664197       -7.56491207853118
 C           3.13704754615199       -6.09507767788971       -7.57935265560379
 O           2.22847130591958       -5.45471828873797       -7.11352502559395
 H           3.50499625396576       -7.84377277760991       -5.53801185056933
 H           3.86133036010557       -8.11146244555548       -8.00653804705209
 H           2.12186464285352       -7.87858259893110       -8.15532798010050
 N           4.27794766241169       -5.46267454042588       -8.10710718078550
 C           5.42464237004728       -5.96208354030676       -8.69562809104538
 H           4.20096790862551       -4.42807007556473       -8.14872561707562
 H           6.33948695687221       -5.59830537618509       -8.27568179228575
 H           5.43561776241414       -7.06055557384655       -8.63443327201888
35
 energy: -6.241444532648 gnorm: 0.000396258709 xtb: 6.6.1 (8d0f1dd)
 C          -4.76995868308477      -11.30176434461823        1.29095451996629
 O          -5.85451251527868      -10.81487311244738        1.11212055400709
 N          -3.62934167472261      -10.76690999402271        0.78383924469961
 C          -2.28705570019908      -11.35117178326363        0.78325704905083
 C          -1.72892853709032      -11.45196930832239       -0.60183657941249
 O          -2.12011716216436      -12.33412869327872       -1.33602321198877
 H          -3.70566400052438       -9.91635757779340        0.22863849784362
 H          -1.63375381141238      -10.74624919711618        1.42039381790141
 H          -2.30882521513462      -12.35463792003265        1.21341955889285
 N          -0.78917789046127      -10.52850980767622       -1.00163350101696
 C          -0.37301416836272      -10.46864119608143       -2.38429737448168
 C          -0.80651536577757       -9.17044408606343       -3.01276757146907
 O          -1.89720712144644       -8.72996433536729       -2.71190053029869
 H          -0.63531953737584       -9.66891032422133       -0.47166955160499
 H           0.71102290218537      -10.59961658755943       -2.42649476065498
 H          -0.84073046461017      -11.30629375136235       -2.90939226704072
 N          -0.00736564518442       -8.49577332849707       -3.91767694281374
 C           1.31795526107587       -8.90186179474733       -4.37541593843752
 C           1.53883166842350       -8.52138316553411       -5.81414423768802
 O           0.62036270677066       -8.62244626959236       -6.59837602173424
 H          -0.38333493693614       -7.68216104094013       -4.39739041817560
 H           2.07274126628436       -8.44425375589385       -3.72901964571924
 H           1.41536706313509       -9.98670024688343       -4.29084906259921
 N           2.78585831676150       -8.09386676175682       -6.21656947141664
 C           3.00137276465480       -7.60097299210296       -7.56487905923417
 C           3.13701548031366       -6.09493058881114       -7.57929368855192
 O           2.22836933205179       -5.45470562042162       -7.11357280811882
 H           3.50498924090255       -7.84367731535224       -5.53796961428042
 H           3.86130720628998       -8.11143801871030       -8.00654345978993
 H           2.12191807176932       -7.87860359736093       -8.15531049213420
 N           4.27802585863725       -5.46271150845486       -8.10700833669753
 C           5.42471064020414       -5.96211999030229       -8.69570072277805
 H           4.20078221780294       -4.42805925628927       -8.14888742935097
 H           6.33948961474480       -5.59830469150531       -8.27567104331144
 H           5.43570281775818       -7.06058803761718       -8.63432950156169
