      -----------------------------------------------------------      
     |                   =====================                   |     
     |                           x T B                           |     
     |                   =====================                   |     
     |                         S. Grimme                         |     
     |          Mulliken Center for Theoretical Chemistry        |     
     |                    University of Bonn                     |     
      -----------------------------------------------------------      

   * xtb version 6.6.1 (8d0f1dd) compiled by 'conda@1efc2f54142f' on 2023-08-01

   xtb is free software: you can redistribute it and/or modify it under
   the terms of the GNU Lesser General Public License as published by
   the Free Software Foundation, either version 3 of the License, or
   (at your option) any later version.
   
   xtb is distributed in the hope that it will be useful,
   but WITHOUT ANY WARRANTY; without even the implied warranty of
   MERCHANTABILITY or FITNESS FOR A PARTICULAR PURPOSE.  See the
   GNU Lesser General Public License for more details.
   
   Cite this work as:
   * C. Bannwarth, E. Caldeweyher, S. Ehlert, A. Hansen, P. Pracht,
     J. Seibert, S. Spicher, S. Grimme, WIREs Comput. Mol. Sci., 2020, 11,
     e01493. DOI: 10.1002/wcms.1493
   
   for GFN2-xTB:
   * C. Bannwarth, S. Ehlert and S. Grimme., J. Chem. Theory Comput., 2019,
     15, 1652-1671. DOI: 10.1021/acs.jctc.8b01176
   for GFN1-xTB:
   * S. Grimme, C. Bannwarth, P. Shushkov, J. Chem. Theory Comput., 2017,
     13, 1989-2009. DOI: 10.1021/acs.jctc.7b00118
   for GFN0-xTB:
   * P. Pracht, E. Caldeweyher, S. Ehlert, S. Grimme, ChemRxiv, 2019, preprint.
     DOI: 10.26434/chemrxiv.8326202.v1
   for GFN-FF:
   * S. Spicher and S. Grimme, Angew. Chem. Int. Ed., 2020, 59, 15665-15673.
     DOI: 10.1002/anie.202004239
   
   for ALPB and GBSA implicit solvation:
   * S. Ehlert, M. Stahn, S. Spicher, S. Grimme, J. Chem. Theory Comput.,
     2021, 17, 4250-4261. DOI: 10.1021/acs.jctc.1c00471
   
   for DFT-D4:
   * E. Caldeweyher, C. Bannwarth and S. Grimme, J. Chem. Phys., 2017,
     147, 034112. DOI: 10.1063/1.4993215
   * E. Caldeweyher, S. Ehlert, A. Hansen, H. Neugebauer, S. Spicher,
     C. Bannwarth and S. Grimme, J. Chem. Phys., 2019, 150, 154122.
     DOI: 10.1063/1.5090222
   * E. Caldeweyher, J.-M. Mewes, S. Ehlert and S. Grimme, Phys. Chem. Chem. Phys.
     2020, 22, 8499-8512. DOI: 10.1039/D0CP00502A
   
   for sTDA-xTB:
   * S. Grimme and C. Bannwarth, J. Chem. Phys., 2016, 145, 054103.
     DOI: 10.1063/1.4959605
   
   in the mass-spec context:
   * V. Asgeirsson, C. Bauer and S. Grimme, Chem. Sci., 2017, 8, 4879.
     DOI: 10.1039/c7sc00601b
   * J. Koopman and S. Grimme, ACS Omega 2019, 4, 12, 15120-15133.
     DOI: 10.1021/acsomega.9b02011
   
   for metadynamics refer to:
   * S. Grimme, J. Chem. Theory Comput., 2019, 155, 2847-2862
     DOI: 10.1021/acs.jctc.9b00143
   
   for SPH calculations refer to:
   * S. Spicher and S. Grimme, J. Chem. Theory Comput., 2021, 17, 1701-1714
     DOI: 10.1021/acs.jctc.0c01306
   
   with help from (in alphabetical order)
   P. Atkinson, C. Bannwarth, F. Bohle, G. Brandenburg, E. Caldeweyher
   M. Checinski, S. Dohm, S. Ehlert, S. Ehrlich, I. Gerasimov, C. Hölzer
   A. Katbashev, J. Koopman, C. Lavigne, S. Lehtola, F. März, M. Müller,
   F. Musil, H. Neugebauer, J. Pisarek, C. Plett, P. Pracht, F. Pultar,
   J. Seibert, P. Shushkov, S. Spicher, M. Stahn, M. Steiner, T. Strunk,
   J. Stückrath, T. Rose, and J. Unsleber
   
 * started run on 2025/05/27 at 09:37:43.222     

           -------------------------------------------------
          |                Calculation Setup                |
           -------------------------------------------------

          program call               : xtb substructure_26.pdb --gfnff --input xtb_settings.inp --opt vtight --alpb water --verbose
          coordinate file            : substructure_26.pdb
          xtbhome directory          : /home/dargen3
          path for xtb               : /home/dargen3
          xcontrol input file        : xtb_settings.inp
          omp threads                :                     1

$$$$$$$$$$$$$$$$$$$$$$$$$$$$$$$$$$$$$$$$$$$$$$$$$$$$$$$$$$$$$$$$$$$$$$$$
 CONSTRAINTS & SCANS: DEBUG SECTION
$$$$$$$$$$$$$$$$$$$$$$$$$$$$$$$$$$$$$$$$$$$$$$$$$$$$$$$$$$$$$$$$$$$$$$$$
   ID    Z sym.   atoms
    1    6  C     1, 4, 5, 11, 12, 18, 19, 25, 26, 32
    2    8  O     2, 6, 13, 20, 27
    3    7  N     3, 10, 17, 24, 31
    4    1  H     7-9, 14-16, 21-23, 28-30, 33-35
> constrain
-> atoms: 1, 2, 3, 4, 5, 6, 7, 8, 9, 10, 11, 12, 13, 14, 15, 16, 18, 24, 25, 26, 27, 28, 29, 30, 31, 32, 33, 34, 35
--> 1: 1
--> 2: 2
--> 3: 3
--> 4: 4
--> 5: 5
--> 6: 6
--> 7: 7
--> 8: 8
--> 9: 9
--> 10: 10
--> 11: 11
--> 12: 12
--> 13: 13
--> 14: 14
--> 15: 15
--> 16: 16
--> 17: 18
--> 18: 24
--> 19: 25
--> 20: 26
--> 21: 27
--> 22: 28
--> 23: 29
--> 24: 30
--> 25: 31
--> 26: 32
--> 27: 33
--> 28: 34
--> 29: 35
-> force constant=1.0
$$$$$$$$$$$$$$$$$$$$$$$$$$$$$$$$$$$$$$$$$$$$$$$$$$$$$$$$$$$$$$$$$$$$$$$$
           -------------------------------------------------
          |                   Constraints                   |
           -------------------------------------------------

 * 29 constrained atom positions
   positions refering to input geometry

     #   Z                                   position/Å      displ./Å
     1   6 C     -6.7400006   -13.4560012     3.1640003     0.0000000
     2   8 O     -7.1710007   -14.0680013     2.2100002     0.0000000
     3   7 N     -5.5660005   -12.7450012     3.1330003     0.0000000
     4   6 C     -4.7940004   -12.6990012     1.9410002     0.0000000
     5   6 C     -4.7650004   -11.3070010     1.3560001     0.0000000
     6   8 O     -5.8110005   -10.6920010     1.3000001     0.0000000
     7   1 H     -5.3490005   -12.0320011     3.8330004     0.0000000
     8   1 H     -3.8020004   -13.0870012     2.1430002     0.0000000
     9   1 H     -5.2720005   -13.3720012     1.2080001     0.0000000
    10   7 N     -3.6020003   -10.7240010     0.8850001     0.0000000
    11   6 C     -2.2890002   -11.3470011     0.7820001     0.0000000
    12   6 C     -1.8060002   -11.4010011    -0.6350001     0.0000000
    13   8 O     -2.3580002   -12.1400011    -1.4220001     0.0000000
    14   1 H     -3.6710003    -9.8330009     0.3990000     0.0000000
    15   1 H     -1.5820001   -10.8000010     1.4120001     0.0000000
    16   1 H     -2.3160002   -12.3710011     1.1690001     0.0000000
    18   6 C     -0.3730000   -10.4770010    -2.3880002     0.0000000
    24   7 N      0.0410000    -8.4450008    -3.8350004     0.0000000
    25   6 C      1.3240001    -8.8870008    -4.3620004     0.0000000
    26   6 C      1.5120001    -8.4540008    -5.7980005     0.0000000
    27   8 O      0.5520001    -8.4020008    -6.5380006     0.0000000
    28   1 H     -0.3040000    -7.5830007    -4.2510004     0.0000000
    29   1 H      2.1250002    -8.5310008    -3.7360003     0.0000000
    30   1 H      1.3490001    -9.9940009    -4.3560004     0.0000000
    31   7 N      2.7840003    -8.1400008    -6.2340006     0.0000000
    32   6 C      3.0050003    -7.6070007    -7.5660007     0.0000000
    33   1 H      3.5540003    -8.0100007    -5.5770005     0.0000000
    34   1 H      3.8460004    -8.1080008    -8.0360007     0.0000000
    35   1 H      2.1100002    -7.8320007    -8.1560008     0.0000000

     applying 406 atom pairwise harmonic potentials
       applied force constant per pair:     0.0357143
     effective force constant per atom:     1.0000000
         constraining energy/grad norm:     0.0000000     0.0000000

     total constraint energy/grad norm:     0.0000000     0.0000000

          charge from pdb residues: 0

          entering GFN-FF setup routine... 35

          ==================== Thresholds ====================
          CN  :   150.00000
          rep :   500.00000
          disp:  2500.00000
          HB1 :   250.00000
          HB2 :   450.00000

          Pauling EN used:
          Z : 1  EN :  2.20
          Z : 6  EN :  2.55
          Z : 7  EN :  3.04
          Z : 8  EN :  3.44
          electric field strengths (au): 0.000

           ------------------------------------------------- 
          |           Force Field Initialization            |
           ------------------------------------------------- 

          distances ...
          ----------------------------------------
          generating topology and atomic info file ...
          pair mat ...
          computing topology distances matrix with Floyd-Warshall algo ...
          making topology EEQ charges ...
          #fragments for EEQ constrain from pdb file: 6
          ----------------------------------------
          generating topology and atomic info file ...
          pair mat ...
          computing topology distances matrix with Floyd-Warshall algo ...
          making topology EEQ charges ...
          #fragments for EEQ constrain from pdb file: 6
          rings ...
          # BATM   270
          # H in HB   15
          doing iterative Hueckel for 5 subsystem(s) ...
          iterative Hueckel run to get P ...
Hueckel system :  1 charge :   0 ndim/Nel :    3    3   eps(HOMO/LUMO)   -0.953512   -0.953512
Hueckel system :  2 charge :   0 ndim/Nel :    3    4   eps(HOMO/LUMO)   -0.911362   -0.911362
Hueckel system :  3 charge :   0 ndim/Nel :    3    4   eps(HOMO/LUMO)   -0.911922   -0.911922
Hueckel system :  4 charge :   0 ndim/Nel :    3    4   eps(HOMO/LUMO)   -0.910012   -0.910012
Hueckel system :  5 charge :   0 ndim/Nel :    4    5   eps(HOMO/LUMO)    1.305315    1.305315
WARNING: probably wrong pi occupation for system 5. Second attempt with Nel=Nel-1!
 at,nb,topo%hyb,Npiel:          26  C             3           2           1
 at,nb,topo%hyb,Npiel:          27  O             1           2           1
 at,nb,topo%hyb,Npiel:          31  N             3           3           2
 at,nb,topo%hyb,Npiel:          32  C             3           2           1

          eigenvalues
 #    :           1          2          3          4
 occ. :        2.000      1.987      0.013      0.000
 eps  :        -4.349     -2.183      1.305      3.389
Hueckel system :  5 charge :   0 ndim/Nel :    4    4   eps(HOMO/LUMO)   -2.182828    1.305315

  atom   neighbors  erfCN metchar sp-hybrid imet pi  qest     coordinates
    1   C      2    1.94   0.00        -2    0    1   0.120  -12.736754  -25.428155    5.979093
    2   O      1    0.98   0.00         2    0    1  -0.120  -13.551226  -26.584667    4.176295
    3   N      3    2.79   0.00        -3    0    1  -0.166  -10.518216  -24.084559    5.920512
    4   C      4    3.50   0.00         3    0    0   0.005   -9.059347  -23.997632    3.667958
    5   C      3    2.79   0.00         2    0    1   0.174   -9.004545  -21.367133    2.562469
    6   O      1    0.98   0.00         2    0    1  -0.352  -10.981199  -20.204952    2.456644
    7   H      1    0.98   0.00         0    0    0   0.153  -10.108145  -22.737185    7.243320
    8   H      1    0.97   0.00         0    0    0   0.093   -7.184739  -24.730846    4.049683
    9   H      1    0.97   0.01         0    0    0   0.093   -9.962636  -25.269418    2.282789
   10   N      3    2.79   0.00        -3    0    1  -0.168   -6.806794  -20.265423    1.672408
   11   C      4    3.49   0.00         3    0    0   0.006   -4.325583  -21.442722    1.477766
   12   C      3    2.80   0.00         2    0    1   0.175   -3.412845  -21.544768   -1.199976
   13   O      1    0.98   0.00         2    0    1  -0.352   -4.455974  -22.941275   -2.687191
   14   H      1    0.98   0.00         0    0    0   0.154   -6.937185  -18.581677    0.754001
   15   H      1    0.97   0.00         0    0    0   0.092   -2.989547  -20.409042    2.668293
   16   H      1    0.97   0.00         0    0    0   0.092   -4.376606  -23.377802    2.209090
   17   N      3    2.79   0.00        -3    0    1  -0.167   -1.413515  -20.027317   -1.882167
   18   C      4    3.49   0.00         3    0    0   0.005   -0.704868  -19.798661   -4.512666
   19   C      3    2.79   0.00         2    0    1   0.178   -1.415405  -17.215405   -5.514221
   20   O      1    0.98   0.00         2    0    1  -0.353   -3.382610  -16.281880   -4.792345
   21   H      1    0.98   0.00         0    0    0   0.151   -0.825810  -18.579787   -0.750221
   22   H      1    0.97   0.00         0    0    0   0.093    1.317139  -20.144480   -4.686521
   23   H      1    0.97   0.00         0    0    0   0.093   -1.721540  -21.244301   -5.569023
   24   N      3    2.79   0.00        -3    0    1  -0.170    0.077479  -15.958737   -7.247100
   25   C      4    3.49   0.00         3    0    0   0.006    2.501997  -16.793996   -8.242985
   26   C      3    2.79   0.00         2    0    1   0.195    2.857266  -15.975745  -10.956632
   27   O      1    0.98   0.00         2    0    1  -0.357    1.043129  -15.877479  -12.355029
   28   H      1    0.98   0.00         0    0    0   0.147   -0.574477  -14.329793   -8.033226
   29   H      1    0.97   0.00         0    0    0   0.090    4.015668  -16.121254   -7.060017
   30   H      1    0.97   0.01         0    0    0   0.090    2.549241  -18.885923   -8.231647
   31   N      3    2.79   0.00         3    0    1  -0.226    5.260998  -15.382371  -11.780553
   32   C      3    2.78   0.00         2    0    1  -0.008    5.678627  -14.375147  -14.297668
   33   H      1    0.98   0.00         0    0    0   0.123    6.716087  -15.136706  -10.539003
   34   H      1    0.97   0.00         0    0    0   0.055    7.267887  -15.321899  -15.185839
   35   H      1    0.97   0.00         0    0    0   0.055    3.987322  -14.800335  -15.412606

molecular fragment  # atoms  topo charge
       1             2            -0.000
       2             7            -0.000
       3             7            -0.000
       4             7             0.000
       5             7             0.000
       6             5            -0.000


          #atoms :   35
          #bonds :   34

 bond atoms        type  in ring    R      R0    piBO    fqq  kbond(tot)  alp
 O  C     2    1      2    0     1.213   0.996   0.799   1.047  -0.252   0.584
 N  C     3    1      2    0     1.373   1.215   0.504   1.047  -0.235   0.524
 C  N     4    3      1    0     1.421   1.326 -99.000   1.033  -0.151   0.496
 C  C     5    4      1    0     1.510   1.332 -99.000   1.013  -0.162   0.475
 O  C     6    5      2    0     1.215   1.031   0.856   1.047  -0.262   0.584
 H  N     7    3      1    0     1.022   0.890 -99.000   1.047  -0.176   0.551
 H  C     8    4      1    0     1.084   0.977 -99.000   1.018  -0.164   0.482
 H  C     9    4      1    0     1.104   0.977 -99.000   1.018  -0.164   0.482
 N  C    10    5      2    0     1.384   1.263   0.503   1.047  -0.234   0.524
 C  N    11   10      1    0     1.457   1.326 -99.000   1.036  -0.151   0.496
 C  C    12   11      1    0     1.498   1.332 -99.000   1.011  -0.162   0.475
 O  C    13   12      2    0     1.212   1.031   0.856   1.047  -0.262   0.584
 H  N    14   10      1    0     1.017   0.890 -99.000   1.047  -0.176   0.551
 H  C    15   11      1    0     1.094   0.976 -99.000   1.016  -0.164   0.482
 H  C    16   11      1    0     1.095   0.976 -99.000   1.016  -0.164   0.482
 N  C    17   12      2    0     1.376   1.263   0.503   1.047  -0.234   0.524
 C  N    18   17      1    0     1.447   1.326 -99.000   1.033  -0.151   0.496
 C  C    19   18      1    0     1.514   1.332 -99.000   1.014  -0.162   0.475
 O  C    20   19      2    0     1.214   1.031   0.856   1.047  -0.262   0.584
 H  N    21   17      1    0     1.021   0.890 -99.000   1.047  -0.176   0.551
 H  C    22   18      1    0     1.089   0.977 -99.000   1.018  -0.164   0.482
 H  C    23   18      1    0     1.090   0.977 -99.000   1.018  -0.164   0.482
 N  C    24   19      2    0     1.381   1.263   0.504   1.047  -0.234   0.524
 C  N    25   24      1    0     1.456   1.326 -99.000   1.034  -0.151   0.496
 C  C    26   25      1    0     1.512   1.332 -99.000   1.011  -0.162   0.475
 O  C    27   26      2    0     1.213   1.018   0.930   1.047  -0.274   0.584
 H  N    28   24      1    0     1.017   0.890 -99.000   1.047  -0.176   0.551
 H  C    29   25      1    0     1.077   0.976 -99.000   1.018  -0.164   0.482
 H  C    30   25      1    0     1.107   0.976 -99.000   1.018  -0.164   0.482
 N  C    31   26      2    0     1.381   1.291   0.346   1.047  -0.203   0.524
 C  N    32   31      2    0     1.452   1.190   0.906   1.006  -0.302   0.524
 H  N    33   31      1    0     1.020   0.890 -99.000   1.047  -0.176   0.551
 H  C    34   32      1    0     1.086   0.950 -99.000   1.029  -0.179   0.490
 H  C    35   32      1    0     1.095   0.950 -99.000   1.029  -0.179   0.490
          #angl  :   55

 angle atoms        phi0    phi      FC  pi rings
    1    3    2   145.000 123.200   0.082 F   0
    3    4    1   115.000 120.021   0.411 F   0
    3    7    1   115.000 121.814   0.335 F   0
    3    7    4   104.000 115.877   0.182 F   0
    4    5    3   109.500 111.422   0.307 F   0
    4    8    3   109.500 109.223   0.253 F   0
    4    8    5   109.500 112.611   0.251 F   0
    4    9    3   109.500 107.579   0.253 F   0
    4    9    5   109.500 108.242   0.251 F   0
    4    9    8   108.600 107.561   0.209 F   0
    5    6    4   120.000 117.904   0.178 F   0
    5   10    4   120.000 122.439   0.243 F   0
    5   10    6   120.000 119.657   0.176 F   0
   10   11    5   115.000 126.971   0.409 F   0
   10   14    5   115.000 118.339   0.333 F   0
   10   14   11   104.000 113.696   0.182 F   0
   11   12   10   109.500 111.892   0.307 F   0
   11   15   10   109.500 109.148   0.253 F   0
   11   15   12   109.500 110.763   0.252 F   0
   11   16   10   109.500 110.650   0.253 F   0
   11   16   12   109.500 107.971   0.252 F   0
   11   16   15   108.600 106.265   0.209 F   0
   12   13   11   120.000 119.284   0.178 F   0
   12   17   11   120.000 118.353   0.243 F   0
   12   17   13   120.000 122.362   0.176 F   0
   17   18   12   115.000 120.027   0.409 F   0
   17   21   12   115.000 121.198   0.333 F   0
   17   21   18   104.000 115.013   0.182 F   0
   18   19   17   109.500 110.369   0.307 F   0
   18   22   17   109.500 108.771   0.253 F   0
   18   22   19   109.500 111.477   0.251 F   0
   18   23   17   109.500 107.875   0.253 F   0
   18   23   19   109.500 109.378   0.251 F   0
   18   23   22   108.600 108.887   0.209 F   0
   19   20   18   120.000 118.058   0.178 F   0
   19   24   18   120.000 121.688   0.242 F   0
   19   24   20   120.000 120.235   0.176 F   0
   24   25   19   115.000 126.751   0.409 F   0
   24   28   19   115.000 119.045   0.333 F   0
   24   28   25   104.000 114.084   0.182 F   0
   25   26   24   109.500 111.503   0.307 F   0
   25   29   24   109.500 110.161   0.253 F   0
   25   29   26   109.500 111.404   0.251 F   0
   25   30   24   109.500 108.752   0.253 F   0
   25   30   26   109.500 106.781   0.251 F   0
   25   30   29   108.600 108.088   0.209 F   0
   26   27   25   120.000 119.558   0.177 F   0
   26   31   25   120.000 118.664   0.241 F   0
   26   31   27   120.000 121.775   0.174 F   0
   31   32   26   113.000 120.896   0.042 F   0
   31   33   26   113.000 121.382   0.211 F   0
   31   33   32   113.000 115.411   0.105 F   0
   32   34   31   120.000 110.222   0.204 F   0
   32   35   31   120.000 107.124   0.204 F   0
   32   35   34   120.000 107.753   0.167 F   0
 torsion atoms        nrot   rings    phi0    phi      FC
    3    1    4    2   2      0     180.000   0.167   0.765
    3    1    7    2   2      0     180.000 162.282   1.135
    4    3    5    1   3      0     180.000 113.375   0.024
    4    3    5    7   3      0     180.000  49.763   0.032
    4    3    8    1   3      0     180.000 121.582   0.034
    4    3    8    7   3      0     180.000  75.279   0.045
    4    3    9    1   3      0     180.000   5.116   0.034
    4    3    9    7   3      0     180.000 168.255   0.045
    5    4    6    3   3      0     180.000  44.803   0.066
    5    4    6    8   3      0     180.000 167.931   0.115
    5    4    6    9   3      0     180.000  73.291   0.115
    5    4   10    3   3      0     180.000 135.462   0.041
    5    4   10    8   3      0     180.000  12.333   0.072
    5    4   10    9   3      0     180.000 106.444   0.072
   10    5   11    4   2      0     180.000   4.675   0.615
   10    5   11    6   2      0     180.000 175.056   0.833
   10    5   14    4   2      0     180.000 172.494   0.912
   10    5   14    6   2      0     180.000   7.237   1.236
   11   10   12    5   3      0     180.000 118.488   0.022
   11   10   12   14   3      0     180.000  49.810   0.032
   11   10   15    5   3      0     180.000 118.558   0.032
   11   10   15   14   3      0     180.000  73.143   0.045
   11   10   16    5   3      0     180.000   1.962   0.032
   11   10   16   14   3      0     180.000 170.260   0.045
   12   11   13   10   3      0     180.000  69.294   0.066
   12   11   13   15   3      0     180.000 168.674   0.115
   12   11   13   16   3      0     180.000  52.705   0.115
   12   11   17   10   3      0     180.000 110.407   0.041
   12   11   17   15   3      0     180.000  11.625   0.072
   12   11   17   16   3      0     180.000 127.594   0.072
   17   12   18   11   2      0     180.000 171.251   0.614
   17   12   18   13   2      0     180.000   8.441   0.832
   17   12   21   11   2      0     180.000  14.186   0.911
   17   12   21   13   2      0     180.000 165.506   1.235
   18   17   19   12   3      0     180.000 108.208   0.022
   18   17   19   21   3      0     180.000  50.210   0.032
   18   17   22   12   3      0     180.000 129.199   0.032
   18   17   22   21   3      0     180.000  72.383   0.045
   18   17   23   12   3      0     180.000  11.240   0.032
   18   17   23   21   3      0     180.000 169.658   0.045
   19   18   20   17   3      0     180.000  37.680   0.066
   19   18   20   22   3      0     180.000 158.674   0.115
   19   18   20   23   3      0     180.000  80.853   0.115
   19   18   24   17   3      0     180.000 143.909   0.041
   19   18   24   22   3      0     180.000  22.915   0.072
   19   18   24   23   3      0     180.000  97.558   0.072
   24   19   25   18   2      0     180.000   3.253   0.620
   24   19   25   20   2      0     180.000 178.369   0.840
   24   19   28   18   2      0     180.000 172.518   0.920
   24   19   28   20   2      0     180.000   5.860   1.247
   25   24   26   19   3      0     180.000 146.349   0.022
   25   24   26   28   3      0     180.000  29.602   0.032
   25   24   29   19   3      0     180.000  89.423   0.032
   25   24   29   28   3      0     180.000  94.627   0.045
   25   24   30   19   3      0     180.000  28.867   0.032
   25   24   30   28   3      0     180.000 147.083   0.045
   26   25   27   24   3      0     180.000  34.068   0.066
   26   25   27   29   3      0     180.000 157.594   0.115
   26   25   27   30   3      0     180.000  84.598   0.115
   26   25   31   24   3      0     180.000 146.570   0.041
   26   25   31   29   3      0     180.000  23.045   0.072
   26   25   31   30   3      0     180.000  94.764   0.072
   31   26   32   25   2      0     180.000 174.543   0.343
   31   26   32   27   2      0     180.000   6.110   0.465
   31   26   33   25   2      0     180.000  12.599   0.489
   31   26   33   27   2      0     180.000 168.054   0.663
   32   31   34   26   2      0     180.000 134.832   1.385
   32   31   34   33   2      0     180.000  62.203   1.974
   32   31   35   26   2      0     180.000  17.863   1.385
   32   31   35   33   2      0     180.000 179.172   1.974
 out-of-plane atoms          phi0    phi      FC
    3    7    1    4          0.000  15.421   0.133
    5    6   10    4          0.000  -0.227  23.920
   10   14    5   11          0.000   9.705   0.125
   12   13   17   11          0.000   0.272  23.974
   17   21   12   18          0.000  19.718   0.130
   19   20   24   18          0.000  -1.381  24.122
   24   28   19   25          0.000   3.387   0.116
   26   27   31   25          0.000  -0.573  28.543
   31   33   26   32          0.000  15.425  -0.052
   32   34   35   31          0.000  57.056   0.552
          #tors  :   80
          #nmol  :   6
          #optfrag :   6

 GFN-FF setup done.

           ------------------------------------------------- 
          |                   G F N - F F                   |
          |          A general generic force-field          |
          |                  Version 1.0.3                  | 
           ------------------------------------------------- 
      * Solvation model:               ALPB
        Solvent                        water
        Parameter file                 internal GFN-FF/ALPB
        Dielectric constant                8.0200E+01
        Reference state                gsolv [1 M gas/solution]
        Free energy shift                  3.6494E-04 Eh       2.2900E-01 kcal/mol
        Temperature                        2.9815E+02 K
        Density                            1.0000E+00 kg/L
        Solvent mass                       1.8000E+01 g/mol
        Interaction kernel             P16
        Born radius scaling (c1)           1.5056E+00
        Born radii integrator          GBOBC
        Born offset                        0.0000E+00 a0       0.0000E+00 AA
        H-bond correction              true
        Ion screening                  false
        Surface tension                    1.0000E-05 Eh       1.5569E+01 dyn/cm
        Grid points                               230 per atom
          Number of HB bonds (bound hydrogen)     330
          Number of HB bonds (unbound hydrogen)   44
          Number of XB bonds                      0

 E+G (total)                   0 d,  0 h,  0 min,  0.001 sec
 distance/D3 list               ...        0 min,  0.000 sec (  0.295%)
 non bonded repulsion           ...        0 min,  0.000 sec (  1.969%)
 dCN                            ...        0 min,  0.000 sec (  3.044%)
 EEQ energy and q               ...        0 min,  0.000 sec (  4.417%)
 D3                             ...        0 min,  0.000 sec (  7.839%)
 EEQ gradient                   ...        0 min,  0.000 sec (  4.495%)
 bonds                          ...        0 min,  0.000 sec (  0.890%)
 bend and torsion               ...        0 min,  0.000 sec (  4.104%)
 bonded ATM                     ...        0 min,  0.000 sec (  1.568%)
 HB/XB (incl list setup)        ...        0 min,  0.000 sec (  9.333%)
 GBSA                           ...        0 min,  0.000 sec ( 64.396%)

         :::::::::::::::::::::::::::::::::::::::::::::::::::::
         ::                     SUMMARY                     ::
         :::::::::::::::::::::::::::::::::::::::::::::::::::::
         :: total energy              -6.231050891759 Eh    ::
         :: total w/o Gsolv           -6.192289440595 Eh    ::
         :: total w/o Gsasa/hb        -6.226356843563 Eh    ::
         :: gradient norm              0.177873931056 Eh/a0 ::
         ::.................................................::
         :: bond energy               -6.280157740424 Eh    ::
         :: angle energy               0.029454050945 Eh    ::
         :: torsion energy             0.014355887509 Eh    ::
         :: repulsion energy           0.384169338192 Eh    ::
         :: electrostat energy        -0.307478980633 Eh    ::
         :: dispersion energy         -0.022752656466 Eh    ::
         :: HB energy                 -0.000623473511 Eh    ::
         :: XB energy                  0.000000000000 Eh    ::
         :: bonded atm energy         -0.009255866207 Eh    ::
         :: external energy            0.000000000000 Eh    ::
         :: -> Gsolv                  -0.038761451164 Eh    ::
         ::    -> Gborn               -0.034067402968 Eh    ::
         ::    -> Gsasa                0.009584665919 Eh    ::
         ::    -> Ghb                 -0.014643653370 Eh    ::
         ::    -> Gshift               0.000364939255 Eh    ::
         :: add. restraining           0.000000000000 Eh    ::
         :: total charge               0.000000000000 e     ::
         ::.................................................::
         :: atomisation energy         0.000000000000 Eh    ::
         :::::::::::::::::::::::::::::::::::::::::::::::::::::

      ----------------------------------------------------------- 
     |                   =====================                   |
     |                        A N C O P T                        |
     |                   =====================                   |
     |               Approximate Normal Coordinate               |
     |                Rational Function Optimizer                |
      ----------------------------------------------------------- 

          ...................................................
          :                      SETUP                      :
          :.................................................:
          :   optimization level         verytight          :
          :   max. optcycles                    10          :
          :   ANC micro-cycles                  10          :
          :   degrees of freedom                99          :
          :.................................................:
          :   RF solver                   davidson          :
          :   write xtbopt.log                true          :
          :   linear?                        false          :
          :   energy convergence         0.1000000E-06 Eh   :
          :   grad. convergence          0.2000000E-03 Eh/α :
          :   maxmium RF displ.          1.0000000          :
          :   Hlow (freq-cutoff)         0.1000000E-01      :
          :   Hmax (freq-cutoff)         5.0000000          :
          :   S6 in model hess.         20.0000000          :
          ...................................................

generating ANC from model Hessian ...
Using GFN-FF Lindh-Hessian
 Shifting diagonal of input Hessian by    0.0000000000000000     
 Lowest  eigenvalues of input Hessian
    0.000000    0.000000    0.000000    0.000000    0.000000    0.000000
    0.015797    0.020073    0.029150    0.031213    0.048607    0.056668
    0.063692    0.071022    0.086899    0.090326    0.096082    0.103685
 Highest eigenvalues
    3.344034    3.766969    3.863584    3.992793    4.153218    4.282290


........................................................................
.............................. CYCLE    1 ..............................
........................................................................
     iter. time                 ...        0 min,  0.001 sec
 * total energy  :    -6.2310509 Eh     change        0.0000000E+00 Eh
   gradient norm :     0.1778739 Eh/α   predicted     0.0000000E+00 (    NaN%)
   displ. norm   :     0.1320181 α      lambda       -0.1423407E-01
   maximum displ.:     0.0528261 α      in ANC's #49, #13, #25, ...

........................................................................
.............................. CYCLE    2 ..............................
........................................................................
     iter. time                 ...        0 min,  0.001 sec
 * total energy  :    -6.2409155 Eh     change       -0.9864580E-02 Eh
   gradient norm :     0.0654240 Eh/α   predicted    -0.7241080E-02 ( -26.60%)
   displ. norm   :     0.1059304 α      lambda       -0.4454139E-02
   maximum displ.:     0.0499977 α      in ANC's #49, #11, #25, ...

........................................................................
.............................. CYCLE    3 ..............................
........................................................................
     iter. time                 ...        0 min,  0.001 sec
 * total energy  :    -6.2434618 Eh     change       -0.2546366E-02 Eh
   gradient norm :     0.0179330 Eh/α   predicted    -0.2252585E-02 ( -11.54%)
   displ. norm   :     0.0357950 α      lambda       -0.4346443E-03
   maximum displ.:     0.0172598 α      in ANC's #49, #33, #35, ...

........................................................................
.............................. CYCLE    4 ..............................
........................................................................
     iter. time                 ...        0 min,  0.001 sec
 * total energy  :    -6.2437646 Eh     change       -0.3027332E-03 Eh
   gradient norm :     0.0103618 Eh/α   predicted    -0.2176778E-03 ( -28.10%)
   displ. norm   :     0.0316157 α      lambda       -0.2074924E-03
   maximum displ.:     0.0187391 α      in ANC's #33, #49, #35, ...

........................................................................
.............................. CYCLE    5 ..............................
........................................................................
     iter. time                 ...        0 min,  0.001 sec
 * total energy  :    -6.2438950 Eh     change       -0.1304517E-03 Eh
   gradient norm :     0.0048327 Eh/α   predicted    -0.1039367E-03 ( -20.33%)
   displ. norm   :     0.0210916 α      lambda       -0.5733181E-04
   maximum displ.:     0.0115231 α      in ANC's #33, #11, #4, ...

........................................................................
.............................. CYCLE    6 ..............................
........................................................................
     iter. time                 ...        0 min,  0.000 sec
 * total energy  :    -6.2439366 Eh     change       -0.4155362E-04 Eh
   gradient norm :     0.0040393 Eh/α   predicted    -0.2873890E-04 ( -30.84%)
   displ. norm   :     0.0229414 α      lambda       -0.4292073E-04
   maximum displ.:     0.0113397 α      in ANC's #33, #3, #11, ...

........................................................................
.............................. CYCLE    7 ..............................
........................................................................
     iter. time                 ...        0 min,  0.000 sec
 * total energy  :    -6.2439643 Eh     change       -0.2771392E-04 Eh
   gradient norm :     0.0032272 Eh/α   predicted    -0.2147990E-04 ( -22.49%)
   displ. norm   :     0.0113889 α      lambda       -0.1264293E-04
   maximum displ.:     0.0055087 α      in ANC's #3, #31, #1, ...

........................................................................
.............................. CYCLE    8 ..............................
........................................................................
     iter. time                 ...        0 min,  0.000 sec
 * total energy  :    -6.2439726 Eh     change       -0.8284209E-05 Eh
   gradient norm :     0.0016378 Eh/α   predicted    -0.6363227E-05 ( -23.19%)
   displ. norm   :     0.0099599 α      lambda       -0.3725837E-05
   maximum displ.:     0.0057303 α      in ANC's #1, #3, #31, ...

........................................................................
.............................. CYCLE    9 ..............................
........................................................................
     iter. time                 ...        0 min,  0.000 sec
 * total energy  :    -6.2439752 Eh     change       -0.2607380E-05 Eh
   gradient norm :     0.0008860 Eh/α   predicted    -0.1876815E-05 ( -28.02%)
   displ. norm   :     0.0037452 α      lambda       -0.7958822E-06
   maximum displ.:     0.0021483 α      in ANC's #1, #3, #6, ...

........................................................................
.............................. CYCLE   10 ..............................
........................................................................
     iter. time                 ...        0 min,  0.000 sec
 * total energy  :    -6.2439762 Eh     change       -0.9691733E-06 Eh
   gradient norm :     0.0005785 Eh/α   predicted    -0.4077528E-06 ( -57.93%)
   displ. norm   :     0.0135008 α      lambda       -0.1588636E-05
   maximum displ.:     0.0087975 α      in ANC's #1, #3, #38, ...

   *** FAILED TO CONVERGE GEOMETRY OPTIMIZATION IN 10 ITERATIONS ***


 ANCopt (total)                0 d,  0 h,  0 min,  0.007 sec
 optimizer setup                ...        0 min,  0.000 sec (  0.915%)
 model hessian                  ...        0 min,  0.000 sec (  3.402%)
 ANC generation                 ...        0 min,  0.001 sec (  8.919%)
 coordinate transformation      ...        0 min,  0.000 sec (  0.436%)
 single point calculation       ...        0 min,  0.005 sec ( 74.797%)
 optimization log               ...        0 min,  0.000 sec (  5.702%)
 hessian update                 ...        0 min,  0.000 sec (  0.658%)
 rational function              ...        0 min,  0.000 sec (  3.037%)

================
 final structure:
================
ATOM      1  C   GLY A   9      -6.731 -13.454   3.161  1.00  0.00           C  
ATOM      2  O   GLY A   9      -7.171 -14.067   2.220  1.00  0.00           O  
ATOM      3  N   GLY A  10      -5.569 -12.752   3.136  1.00  0.00           N  
ATOM      4  CA  GLY A  10      -4.796 -12.699   1.933  1.00  0.00           C  
ATOM      5  C   GLY A  10      -4.764 -11.308   1.356  1.00  0.00           C  
ATOM      6  O   GLY A  10      -5.810 -10.694   1.300  1.00  0.00           O  
ATOM      7  H   GLY A  10      -5.353 -12.032   3.831  1.00  0.00           H  
ATOM      8  HA2 GLY A  10      -3.800 -13.087   2.145  1.00  0.00           H  
ATOM      9  HA3 GLY A  10      -5.268 -13.375   1.208  1.00  0.00           H  
ATOM     10  N   GLY A  11      -3.601 -10.724   0.886  1.00  0.00           N  
ATOM     11  CA  GLY A  11      -2.286 -11.351   0.783  1.00  0.00           C  
ATOM     12  C   GLY A  11      -1.806 -11.400  -0.634  1.00  0.00           C  
ATOM     13  O   GLY A  11      -2.356 -12.140  -1.421  1.00  0.00           O  
ATOM     14  H   GLY A  11      -3.670  -9.833   0.401  1.00  0.00           H  
ATOM     15  HA2 GLY A  11      -1.581 -10.799   1.413  1.00  0.00           H  
ATOM     16  HA3 GLY A  11      -2.315 -12.371   1.169  1.00  0.00           H  
ATOM     17  N   GLY A  12      -0.748 -10.596  -0.997  1.00  0.00           N  
ATOM     18  CA  GLY A  12      -0.375 -10.468  -2.386  1.00  0.00           C  
ATOM     19  C   GLY A  12      -0.753  -9.113  -2.921  1.00  0.00           C  
ATOM     20  O   GLY A  12      -1.796  -8.623  -2.541  1.00  0.00           O  
ATOM     21  H   GLY A  12      -0.443  -9.826  -0.400  1.00  0.00           H  
ATOM     22  HA2 GLY A  12       0.698 -10.658  -2.479  1.00  0.00           H  
ATOM     23  HA3 GLY A  12      -0.907 -11.245  -2.945  1.00  0.00           H  
ATOM     24  N   GLY A  13       0.042  -8.440  -3.831  1.00  0.00           N  
ATOM     25  CA  GLY A  13       1.317  -8.898  -4.374  1.00  0.00           C  
ATOM     26  C   GLY A  13       1.497  -8.435  -5.798  1.00  0.00           C  
ATOM     27  O   GLY A  13       0.547  -8.399  -6.539  1.00  0.00           O  
ATOM     28  H   GLY A  13      -0.303  -7.578  -4.246  1.00  0.00           H  
ATOM     29  HA2 GLY A  13       2.125  -8.533  -3.737  1.00  0.00           H  
ATOM     30  HA3 GLY A  13       1.344  -9.992  -4.360  1.00  0.00           H  
ATOM     31  N   GLY A  14       2.763  -8.075  -6.250  1.00  0.00           N  
ATOM     32  CA  GLY A  14       3.022  -7.698  -7.561  1.00  0.00           C  
ATOM     33  H   GLY A  14       3.550  -8.036  -5.589  1.00  0.00           H  
ATOM     34  HA2 GLY A  14       3.876  -8.117  -8.021  1.00  0.00           H  
ATOM     35  HA3 GLY A  14       2.114  -7.786  -8.142  1.00  0.00           H  
END

 Bond Distances (Angstroems)
 ---------------------------
C1-O2=1.2060         C1-N3=1.3575         O2-C1=1.2060         N3-C1=1.3575         N3-C4=1.4308         N3-H7=1.0236         
C4-N3=1.4308         C4-C5=1.5061         C4-H8=1.0903         C4-H9=1.0976         C5-C4=1.5061         C5-O6=1.2145         
C5-N10=1.3840        O6-C5=1.2145         H7-N3=1.0236         H8-C4=1.0903         H9-C4=1.0976         N10-C5=1.3840        
N10-C11=1.4601       N10-H14=1.0170       C11-N10=1.4601       C11-C12=1.4975       C11-H15=1.0944       C11-H16=1.0912       
C12-C11=1.4975       C12-O13=1.2124       C12-N17=1.3768       O13-C12=1.2124       H14-N10=1.0170       H15-C11=1.0944       
H16-C11=1.0912       N17-C12=1.3768       N17-C18=1.4441       N17-H21=1.0209       C18-N17=1.4441       C18-C19=1.5044       
C18-H22=1.0933       C18-H23=1.0958       C19-C18=1.5044       C19-O20=1.2137       C19-N24=1.3831       O20-C19=1.2137       
H21-N17=1.0209       H22-C18=1.0933       H23-C18=1.0958       N24-C19=1.3831       N24-C25=1.4589       N24-H28=1.0171       
C25-N24=1.4589       C25-C26=1.5083       C25-H29=1.0915       C25-H30=1.0948       C26-C25=1.5083       C26-O27=1.2047       
C26-N31=1.3923       O27-C26=1.2047       H28-N24=1.0171       H29-C25=1.0915       H30-C25=1.0948       N31-C26=1.3923       
N31-C32=1.3885       N31-H33=1.0279       C32-N31=1.3885       C32-H34=1.0570       C32-H35=1.0825       H33-N31=1.0279       
H34-C32=1.0570       H35-C32=1.0825       
 C  H  Rav=1.0888 sigma=0.0113  Rmin=1.0570  Rmax=1.0976    10
 C  C  Rav=1.5041 sigma=0.0040  Rmin=1.4975  Rmax=1.5083     4
 N  H  Rav=1.0213 sigma=0.0041  Rmin=1.0170  Rmax=1.0279     5
 N  C  Rav=1.4076 sigma=0.0353  Rmin=1.3575  Rmax=1.4601    10
 O  C  Rav=1.2103 sigma=0.0041  Rmin=1.2047  Rmax=1.2145     5

 selected bond angles (degree)
 --------------------
N3-C1-O2=124.08                C4-N3-C1=119.80                H7-N3-C1=122.16                H7-N3-C4=115.50                
C5-C4-N3=111.54                H8-C4-N3=108.53                H8-C4-C5=112.53                H9-C4-N3=107.46                
H9-C4-C5=108.97                H9-C4-H8=107.61                O6-C5-C4=117.80                N10-C5-C4=122.55               
N10-C5-O6=119.65               C11-N10-C5=126.83              H14-N10-C5=118.37              H14-N10-C11=113.80             

 selected dihedral angles (degree)
 ---------------------------------
C4-N3-C1-O2=  0.63            H7-N3-C1-O2=161.73            C5-C4-N3-C1=113.43            C5-C4-N3-H7=311.11            
H8-C4-N3-C1=237.95            H8-C4-N3-H7= 75.64            H9-C4-N3-C1=354.05            H9-C4-N3-H7=191.74            
O6-C5-C4-N3=314.76            O6-C5-C4-H8=192.51            O6-C5-C4-H9= 73.24            N10-C5-C4-N3=135.35           
N10-C5-C4-H8= 13.09           N10-C5-C4-H9=253.83           C11-N10-C5-C4=  4.40          C11-N10-C5-O6=184.99          
H14-N10-C5-C4=172.20          H14-N10-C5-O6=352.80          
           -------------------------------------------------
          |                Final Singlepoint                |
           -------------------------------------------------
         :::::::::::::::::::::::::::::::::::::::::::::::::::::
         ::                     SUMMARY                     ::
         :::::::::::::::::::::::::::::::::::::::::::::::::::::
         :: total energy              -6.243977849610 Eh    ::
         :: total w/o Gsolv           -6.205311066435 Eh    ::
         :: total w/o Gsasa/hb        -6.239406238281 Eh    ::
         :: gradient norm              0.000574243828 Eh/a0 ::
         ::.................................................::
         :: bond energy               -6.302121872699 Eh    ::
         :: angle energy               0.025565408264 Eh    ::
         :: torsion energy             0.013443877452 Eh    ::
         :: repulsion energy           0.391959473668 Eh    ::
         :: electrostat energy        -0.307439389696 Eh    ::
         :: dispersion energy         -0.022759262563 Eh    ::
         :: HB energy                 -0.000612752431 Eh    ::
         :: XB energy                  0.000000000000 Eh    ::
         :: bonded atm energy         -0.009376904785 Eh    ::
         :: external energy            0.000000000000 Eh    ::
         :: -> Gsolv                  -0.038666783175 Eh    ::
         ::    -> Gborn               -0.034095171846 Eh    ::
         ::    -> Gsasa                0.009610557602 Eh    ::
         ::    -> Ghb                 -0.014547108186 Eh    ::
         ::    -> Gshift               0.000364939255 Eh    ::
         :: add. restraining           0.006030356355 Eh    ::
         :: total charge               0.000000000000 e     ::
         ::.................................................::
         :: atomisation energy         0.000000000000 Eh    ::
         :::::::::::::::::::::::::::::::::::::::::::::::::::::

           -------------------------------------------------
          |                Property Printout                |
           -------------------------------------------------
           -------------------------------------------------
          |                Geometry Summary                 |
           -------------------------------------------------

      molecular mass/u    :      285.2570109
   center of mass at/Å    :       -1.9746378     -10.4634819      -1.5353051
  moments of inertia/u·Å² :        0.3534880E+03   0.6566064E+04   0.6609320E+04
rotational constants/cm⁻¹ :        0.4768941E-01   0.2567388E-02   0.2550585E-02

 * 29 selected distances

     #   Z          #   Z                                           value/Å
     1   6  C       3   7  N                                      1.3575063
     3   7  N       4   6  C                                      1.4308317
     5   6  C       6   8  O                                      1.2144570
     3   7  N       7   1  H                                      1.0236312
     4   6  C       8   1  H                                      1.0902717
     4   6  C       9   1  H                                      1.0975886
     5   6  C      10   7  N                                      1.3839870
    10   7  N      11   6  C                                      1.4601170 (max)
    12   6  C      13   8  O                                      1.2124209
    10   7  N      14   1  H                                      1.0170077 (min)
    11   6  C      15   1  H                                      1.0943844
    11   6  C      16   1  H                                      1.0912360
    12   6  C      17   7  N                                      1.3768268
    17   7  N      18   6  C                                      1.4441301
    19   6  C      20   8  O                                      1.2136909
    17   7  N      21   1  H                                      1.0208738
    18   6  C      22   1  H                                      1.0932962
    18   6  C      23   1  H                                      1.0958193
    19   6  C      24   7  N                                      1.3831430
    24   7  N      25   6  C                                      1.4589148
    26   6  C      27   8  O                                      1.2046681
    24   7  N      28   1  H                                      1.0170602
    25   6  C      29   1  H                                      1.0914850
    25   6  C      30   1  H                                      1.0947501
    26   6  C      31   7  N                                      1.3923467
    31   7  N      32   6  C                                      1.3884911
    31   7  N      33   1  H                                      1.0278934
    32   6  C      34   1  H                                      1.0569847
    32   6  C      35   1  H                                      1.0825159

 * 4 distinct bonds (by element types)

   Z      Z             #   av. dist./Å        max./Å        min./Å
   1 H    6 C          10     1.0888332     1.0975886     1.0569847
   1 H    7 N           5     1.0212932     1.0278934     1.0170077
   6 C    7 N          10     1.4076294     1.4601170     1.3575063
   6 C    8 O           4     1.2113092     1.2144570     1.2046681


optimized geometry written to: xtbopt.pdb


           -------------------------------------------------
          | TOTAL ENERGY               -6.243977849610 Eh   |
          | GRADIENT NORM               0.000574243828 Eh/α |
           -------------------------------------------------
########################################################################
[WARNING] Runtime exception occurred
-1- gfnff_setup: Could not read topology file.
########################################################################

------------------------------------------------------------------------
 unit  open   action     filename
   10 false : read       xtb_settings.inp
   10 false : read       substructure_26.pdb
   10 false : read       xtb_settings.inp
   10 false : written    gfnff_topo
   10 false : written    gfnff_adjacency
   10 false : written    gfnff_charges
   10 false : deleted    .xtboptok
   10 false : replaced   xtbopt.log
   11 false : created    .xtboptok
   11 false : replaced   gfnff_charges
   10 false : replaced   xtbopt.pdb

------------------------------------------------------------------------
 * finished run on 2025/05/27 at 09:37:43.234     
------------------------------------------------------------------------
 total:
 * wall-time:     0 d,  0 h,  0 min,  0.012 sec
 *  cpu-time:     0 d,  0 h,  0 min,  0.012 sec
 * ratio c/w:     1.000 speedup
 SCF:
 * wall-time:     0 d,  0 h,  0 min,  0.001 sec
 *  cpu-time:     0 d,  0 h,  0 min,  0.001 sec
 * ratio c/w:     0.998 speedup
 ANC optimizer:
 * wall-time:     0 d,  0 h,  0 min,  0.008 sec
 *  cpu-time:     0 d,  0 h,  0 min,  0.008 sec
 * ratio c/w:     1.000 speedup

