      -----------------------------------------------------------      
     |                   =====================                   |     
     |                           x T B                           |     
     |                   =====================                   |     
     |                         S. Grimme                         |     
     |          Mulliken Center for Theoretical Chemistry        |     
     |                    University of Bonn                     |     
      -----------------------------------------------------------      

   * xtb version 6.6.1 (8d0f1dd) compiled by 'conda@1efc2f54142f' on 2023-08-01

   xtb is free software: you can redistribute it and/or modify it under
   the terms of the GNU Lesser General Public License as published by
   the Free Software Foundation, either version 3 of the License, or
   (at your option) any later version.
   
   xtb is distributed in the hope that it will be useful,
   but WITHOUT ANY WARRANTY; without even the implied warranty of
   MERCHANTABILITY or FITNESS FOR A PARTICULAR PURPOSE.  See the
   GNU Lesser General Public License for more details.
   
   Cite this work as:
   * C. Bannwarth, E. Caldeweyher, S. Ehlert, A. Hansen, P. Pracht,
     J. Seibert, S. Spicher, S. Grimme, WIREs Comput. Mol. Sci., 2020, 11,
     e01493. DOI: 10.1002/wcms.1493
   
   for GFN2-xTB:
   * C. Bannwarth, S. Ehlert and S. Grimme., J. Chem. Theory Comput., 2019,
     15, 1652-1671. DOI: 10.1021/acs.jctc.8b01176
   for GFN1-xTB:
   * S. Grimme, C. Bannwarth, P. Shushkov, J. Chem. Theory Comput., 2017,
     13, 1989-2009. DOI: 10.1021/acs.jctc.7b00118
   for GFN0-xTB:
   * P. Pracht, E. Caldeweyher, S. Ehlert, S. Grimme, ChemRxiv, 2019, preprint.
     DOI: 10.26434/chemrxiv.8326202.v1
   for GFN-FF:
   * S. Spicher and S. Grimme, Angew. Chem. Int. Ed., 2020, 59, 15665-15673.
     DOI: 10.1002/anie.202004239
   
   for ALPB and GBSA implicit solvation:
   * S. Ehlert, M. Stahn, S. Spicher, S. Grimme, J. Chem. Theory Comput.,
     2021, 17, 4250-4261. DOI: 10.1021/acs.jctc.1c00471
   
   for DFT-D4:
   * E. Caldeweyher, C. Bannwarth and S. Grimme, J. Chem. Phys., 2017,
     147, 034112. DOI: 10.1063/1.4993215
   * E. Caldeweyher, S. Ehlert, A. Hansen, H. Neugebauer, S. Spicher,
     C. Bannwarth and S. Grimme, J. Chem. Phys., 2019, 150, 154122.
     DOI: 10.1063/1.5090222
   * E. Caldeweyher, J.-M. Mewes, S. Ehlert and S. Grimme, Phys. Chem. Chem. Phys.
     2020, 22, 8499-8512. DOI: 10.1039/D0CP00502A
   
   for sTDA-xTB:
   * S. Grimme and C. Bannwarth, J. Chem. Phys., 2016, 145, 054103.
     DOI: 10.1063/1.4959605
   
   in the mass-spec context:
   * V. Asgeirsson, C. Bauer and S. Grimme, Chem. Sci., 2017, 8, 4879.
     DOI: 10.1039/c7sc00601b
   * J. Koopman and S. Grimme, ACS Omega 2019, 4, 12, 15120-15133.
     DOI: 10.1021/acsomega.9b02011
   
   for metadynamics refer to:
   * S. Grimme, J. Chem. Theory Comput., 2019, 155, 2847-2862
     DOI: 10.1021/acs.jctc.9b00143
   
   for SPH calculations refer to:
   * S. Spicher and S. Grimme, J. Chem. Theory Comput., 2021, 17, 1701-1714
     DOI: 10.1021/acs.jctc.0c01306
   
   with help from (in alphabetical order)
   P. Atkinson, C. Bannwarth, F. Bohle, G. Brandenburg, E. Caldeweyher
   M. Checinski, S. Dohm, S. Ehlert, S. Ehrlich, I. Gerasimov, C. Hölzer
   A. Katbashev, J. Koopman, C. Lavigne, S. Lehtola, F. März, M. Müller,
   F. Musil, H. Neugebauer, J. Pisarek, C. Plett, P. Pracht, F. Pultar,
   J. Seibert, P. Shushkov, S. Spicher, M. Stahn, M. Steiner, T. Strunk,
   J. Stückrath, T. Rose, and J. Unsleber
   
 * started run on 2025/05/27 at 09:37:47.747     

           -------------------------------------------------
          |                Calculation Setup                |
           -------------------------------------------------

          program call               : xtb substructure_37.pdb --gfnff --input xtb_settings.inp --opt vtight --alpb water --verbose
          coordinate file            : substructure_37.pdb
          xtbhome directory          : /home/dargen3
          path for xtb               : /home/dargen3
          xcontrol input file        : xtb_settings.inp
          omp threads                :                     1

$$$$$$$$$$$$$$$$$$$$$$$$$$$$$$$$$$$$$$$$$$$$$$$$$$$$$$$$$$$$$$$$$$$$$$$$
 CONSTRAINTS & SCANS: DEBUG SECTION
$$$$$$$$$$$$$$$$$$$$$$$$$$$$$$$$$$$$$$$$$$$$$$$$$$$$$$$$$$$$$$$$$$$$$$$$
   ID    Z sym.   atoms
    1    6  C     1, 4, 5, 11, 12, 18, 19, 25, 26, 32
    2    8  O     2, 6, 13, 20, 27
    3    7  N     3, 10, 17, 24, 31
    4    1  H     7-9, 14-16, 21-23, 28-30, 33-35
> constrain
-> atoms: 1, 2, 3, 4, 5, 6, 7, 8, 9, 10, 11, 12, 13, 14, 15, 16, 18, 24, 25, 26, 27, 28, 29, 30, 31, 32, 33, 34, 35
--> 1: 1
--> 2: 2
--> 3: 3
--> 4: 4
--> 5: 5
--> 6: 6
--> 7: 7
--> 8: 8
--> 9: 9
--> 10: 10
--> 11: 11
--> 12: 12
--> 13: 13
--> 14: 14
--> 15: 15
--> 16: 16
--> 17: 18
--> 18: 24
--> 19: 25
--> 20: 26
--> 21: 27
--> 22: 28
--> 23: 29
--> 24: 30
--> 25: 31
--> 26: 32
--> 27: 33
--> 28: 34
--> 29: 35
-> force constant=1.0
$$$$$$$$$$$$$$$$$$$$$$$$$$$$$$$$$$$$$$$$$$$$$$$$$$$$$$$$$$$$$$$$$$$$$$$$
           -------------------------------------------------
          |                   Constraints                   |
           -------------------------------------------------

 * 29 constrained atom positions
   positions refering to input geometry

     #   Z                                   position/Å      displ./Å
     1   6 C     -6.7270006   -13.4770013     3.1710003     0.0000000
     2   8 O     -7.1180007   -14.1490013     2.2400002     0.0000000
     3   7 N     -5.5870005   -12.7130012     3.1210003     0.0000000
     4   6 C     -4.7940004   -12.6990012     1.9410002     0.0000000
     5   6 C     -4.7760004   -11.3300011     1.3040001     0.0000000
     6   8 O     -5.8310005   -10.7380010     1.2020001     0.0000000
     7   1 H     -5.4060005   -11.9660011     3.7950004     0.0000000
     8   1 H     -3.8000004   -13.0620012     2.1760002     0.0000000
     9   1 H     -5.2470005   -13.4070012     1.2270001     0.0000000
    10   7 N     -3.6150003   -10.7440010     0.8340001     0.0000000
    11   6 C     -2.2890002   -11.3470011     0.7820001     0.0000000
    12   6 C     -1.7720002   -11.4250011    -0.6210001     0.0000000
    13   8 O     -2.2600002   -12.2260011    -1.3890001     0.0000000
    14   1 H     -3.6900003    -9.8750009     0.3100000     0.0000000
    15   1 H     -1.6070001   -10.7730010     1.4160001     0.0000000
    16   1 H     -2.3110002   -12.3630011     1.1910001     0.0000000
    18   6 C     -0.3730000   -10.4770010    -2.3880002     0.0000000
    24   7 N      0.0240000    -8.4610008    -3.8630004     0.0000000
    25   6 C      1.3240001    -8.8870008    -4.3620004     0.0000000
    26   6 C      1.5210001    -8.4760008    -5.8040005     0.0000000
    27   8 O      0.5750001    -8.4800008    -6.5600006     0.0000000
    28   1 H     -0.3340000    -7.6180007    -4.3040004     0.0000000
    29   1 H      2.1080002    -8.5030008    -3.7320003     0.0000000
    30   1 H      1.3710001    -9.9920009    -4.3350004     0.0000000
    31   7 N      2.7850003    -8.1220008    -6.2260006     0.0000000
    32   6 C      3.0050003    -7.6070007    -7.5660007     0.0000000
    33   1 H      3.5390003    -7.9470007    -5.5600005     0.0000000
    34   1 H      3.8520004    -8.1080008    -8.0240007     0.0000000
    35   1 H      2.1160002    -7.8500007    -8.1550008     0.0000000

     applying 406 atom pairwise harmonic potentials
       applied force constant per pair:     0.0357143
     effective force constant per atom:     1.0000000
         constraining energy/grad norm:     0.0000000     0.0000000

     total constraint energy/grad norm:     0.0000000     0.0000000

          charge from pdb residues: 0

          entering GFN-FF setup routine... 35

          ==================== Thresholds ====================
          CN  :   150.00000
          rep :   500.00000
          disp:  2500.00000
          HB1 :   250.00000
          HB2 :   450.00000

          Pauling EN used:
          Z : 1  EN :  2.20
          Z : 6  EN :  2.55
          Z : 7  EN :  3.04
          Z : 8  EN :  3.44
          electric field strengths (au): 0.000

           ------------------------------------------------- 
          |           Force Field Initialization            |
           ------------------------------------------------- 

          distances ...
          ----------------------------------------
          generating topology and atomic info file ...
          pair mat ...
          computing topology distances matrix with Floyd-Warshall algo ...
          making topology EEQ charges ...
          #fragments for EEQ constrain from pdb file: 6
          ----------------------------------------
          generating topology and atomic info file ...
          pair mat ...
          computing topology distances matrix with Floyd-Warshall algo ...
          making topology EEQ charges ...
          #fragments for EEQ constrain from pdb file: 6
          rings ...
          # BATM   270
          # H in HB   15
          doing iterative Hueckel for 5 subsystem(s) ...
          iterative Hueckel run to get P ...
Hueckel system :  1 charge :   0 ndim/Nel :    3    3   eps(HOMO/LUMO)   -0.953512   -0.953512
Hueckel system :  2 charge :   0 ndim/Nel :    3    4   eps(HOMO/LUMO)   -0.911362   -0.911362
Hueckel system :  3 charge :   0 ndim/Nel :    3    4   eps(HOMO/LUMO)   -0.911922   -0.911922
Hueckel system :  4 charge :   0 ndim/Nel :    3    4   eps(HOMO/LUMO)   -0.910012   -0.910012
Hueckel system :  5 charge :   0 ndim/Nel :    4    5   eps(HOMO/LUMO)    1.305315    1.305315
WARNING: probably wrong pi occupation for system 5. Second attempt with Nel=Nel-1!
 at,nb,topo%hyb,Npiel:          26  C             3           2           1
 at,nb,topo%hyb,Npiel:          27  O             1           2           1
 at,nb,topo%hyb,Npiel:          31  N             3           3           2
 at,nb,topo%hyb,Npiel:          32  C             3           2           1

          eigenvalues
 #    :           1          2          3          4
 occ. :        2.000      1.987      0.013      0.000
 eps  :        -4.349     -2.183      1.305      3.389
Hueckel system :  5 charge :   0 ndim/Nel :    4    4   eps(HOMO/LUMO)   -2.182828    1.305315

  atom   neighbors  erfCN metchar sp-hybrid imet pi  qest     coordinates
    1   C      2    1.94   0.00        -2    0    1   0.120  -12.712188  -25.467839    5.992322
    2   O      1    0.98   0.00         2    0    1  -0.120  -13.451071  -26.737735    4.232987
    3   N      3    2.79   0.00        -3    0    1  -0.166  -10.557900  -24.024088    5.897835
    4   C      4    3.50   0.00         3    0    0   0.005   -9.059347  -23.997632    3.667958
    5   C      3    2.79   0.00         2    0    1   0.174   -9.025332  -21.410597    2.464203
    6   O      1    0.98   0.00         2    0    1  -0.352  -11.018993  -20.291879    2.271451
    7   H      1    0.98   0.00         0    0    0   0.153  -10.215859  -22.612463    7.171511
    8   H      1    0.97   0.00         0    0    0   0.093   -7.180959  -24.683603    4.112044
    9   H      1    0.97   0.01         0    0    0   0.093   -9.915393  -25.335558    2.318694
   10   N      3    2.79   0.00        -3    0    1  -0.168   -6.831360  -20.303217    1.576032
   11   C      4    3.49   0.00         3    0    0   0.006   -4.325583  -21.442722    1.477766
   12   C      3    2.80   0.00         2    0    1   0.175   -3.348595  -21.590121   -1.173520
   13   O      1    0.98   0.00         2    0    1  -0.352   -4.270781  -23.103792   -2.624830
   14   H      1    0.98   0.00         0    0    0   0.154   -6.973089  -18.661045    0.585815
   15   H      1    0.97   0.00         0    0    0   0.092   -3.036790  -20.358020    2.675852
   16   H      1    0.97   0.00         0    0    0   0.092   -4.367157  -23.362684    2.250664
   17   N      3    2.79   0.00        -3    0    1  -0.167   -1.432412  -19.976295   -1.884057
   18   C      4    3.49   0.00         3    0    0   0.005   -0.704868  -19.798661   -4.512666
   19   C      3    2.79   0.00         2    0    1   0.178   -1.456979  -17.253200   -5.576582
   20   O      1    0.98   0.00         2    0    1  -0.353   -3.458199  -16.355580   -4.907619
   21   H      1    0.98   0.00         0    0    0   0.151   -0.963760  -18.451286   -0.799354
   22   H      1    0.97   0.00         0    0    0   0.093    1.328477  -20.104796   -4.652506
   23   H      1    0.97   0.00         0    0    0   0.093   -1.676187  -21.287765   -5.542567
   24   N      3    2.79   0.00        -3    0    1  -0.170    0.045353  -15.988973   -7.300012
   25   C      4    3.49   0.00         3    0    0   0.006    2.501997  -16.793996   -8.242985
   26   C      3    2.80   0.00         2    0    1   0.195    2.874273  -16.017319  -10.967970
   27   O      1    0.98   0.00         2    0    1  -0.357    1.086593  -16.024878  -12.396603
   28   H      1    0.98   0.00         0    0    0   0.147   -0.631169  -14.395934   -8.133381
   29   H      1    0.97   0.00         0    0    0   0.090    3.983543  -16.068341   -7.052458
   30   H      1    0.97   0.01         0    0    0   0.090    2.590815  -18.882143   -8.191963
   31   N      3    2.79   0.00         3    0    1  -0.226    5.262887  -15.348356  -11.765435
   32   C      3    2.78   0.00         2    0    1  -0.008    5.678627  -14.375147  -14.297668
   33   H      1    0.98   0.00         0    0    0   0.123    6.687741  -15.017654  -10.506877
   34   H      1    0.97   0.00         0    0    0   0.055    7.279225  -15.321899  -15.163162
   35   H      1    0.97   0.00         0    0    0   0.055    3.998660  -14.834350  -15.410717

molecular fragment  # atoms  topo charge
       1             2            -0.000
       2             7            -0.000
       3             7            -0.000
       4             7             0.000
       5             7             0.000
       6             5            -0.000


          #atoms :   35
          #bonds :   34

 bond atoms        type  in ring    R      R0    piBO    fqq  kbond(tot)  alp
 O  C     2    1      2    0     1.213   0.996   0.799   1.047  -0.252   0.584
 N  C     3    1      2    0     1.373   1.215   0.504   1.047  -0.235   0.524
 C  N     4    3      1    0     1.422   1.326 -99.000   1.033  -0.151   0.496
 C  C     5    4      1    0     1.510   1.332 -99.000   1.013  -0.162   0.475
 O  C     6    5      2    0     1.214   1.031   0.856   1.047  -0.262   0.584
 H  N     7    3      1    0     1.022   0.890 -99.000   1.047  -0.176   0.551
 H  C     8    4      1    0     1.084   0.977 -99.000   1.018  -0.164   0.482
 H  C     9    4      1    0     1.103   0.977 -99.000   1.018  -0.164   0.482
 N  C    10    5      2    0     1.383   1.263   0.503   1.047  -0.234   0.524
 C  N    11   10      1    0     1.458   1.326 -99.000   1.036  -0.151   0.496
 C  C    12   11      1    0     1.497   1.332 -99.000   1.011  -0.162   0.475
 O  C    13   12      2    0     1.212   1.031   0.856   1.047  -0.262   0.584
 H  N    14   10      1    0     1.018   0.890 -99.000   1.047  -0.176   0.551
 H  C    15   11      1    0     1.094   0.976 -99.000   1.016  -0.164   0.482
 H  C    16   11      1    0     1.095   0.976 -99.000   1.016  -0.164   0.482
 N  C    17   12      2    0     1.378   1.263   0.503   1.047  -0.234   0.524
 C  N    18   17      1    0     1.446   1.326 -99.000   1.033  -0.151   0.496
 C  C    19   18      1    0     1.513   1.332 -99.000   1.014  -0.162   0.475
 O  C    20   19      2    0     1.213   1.031   0.856   1.047  -0.262   0.584
 H  N    21   17      1    0     1.021   0.890 -99.000   1.047  -0.176   0.551
 H  C    22   18      1    0     1.091   0.977 -99.000   1.018  -0.164   0.482
 H  C    23   18      1    0     1.087   0.977 -99.000   1.018  -0.164   0.482
 N  C    24   19      2    0     1.382   1.263   0.504   1.047  -0.234   0.524
 C  N    25   24      1    0     1.456   1.326 -99.000   1.034  -0.151   0.496
 C  C    26   25      1    0     1.512   1.332 -99.000   1.011  -0.162   0.475
 O  C    27   26      2    0     1.211   1.018   0.930   1.047  -0.274   0.584
 H  N    28   24      1    0     1.016   0.890 -99.000   1.047  -0.176   0.551
 H  C    29   25      1    0     1.077   0.976 -99.000   1.018  -0.164   0.482
 H  C    30   25      1    0     1.106   0.976 -99.000   1.018  -0.164   0.482
 N  C    31   26      2    0     1.379   1.291   0.346   1.047  -0.203   0.524
 C  N    32   31      2    0     1.452   1.190   0.906   1.006  -0.302   0.524
 H  N    33   31      1    0     1.021   0.890 -99.000   1.047  -0.176   0.551
 H  C    34   32      1    0     1.085   0.950 -99.000   1.029  -0.179   0.490
 H  C    35   32      1    0     1.094   0.950 -99.000   1.029  -0.179   0.490
          #angl  :   55

 angle atoms        phi0    phi      FC  pi rings
    1    3    2   145.000 123.222   0.082 F   0
    3    4    1   115.000 119.915   0.411 F   0
    3    7    1   115.000 121.973   0.335 F   0
    3    7    4   104.000 116.184   0.182 F   0
    4    5    3   109.500 111.449   0.307 F   0
    4    8    3   109.500 109.161   0.253 F   0
    4    8    5   109.500 112.589   0.251 F   0
    4    9    3   109.500 107.572   0.253 F   0
    4    9    5   109.500 108.288   0.251 F   0
    4    9    8   108.600 107.580   0.209 F   0
    5    6    4   120.000 117.850   0.178 F   0
    5   10    4   120.000 122.518   0.243 F   0
    5   10    6   120.000 119.630   0.176 F   0
   10   11    5   115.000 126.913   0.409 F   0
   10   14    5   115.000 118.363   0.333 F   0
   10   14   11   104.000 113.703   0.182 F   0
   11   12   10   109.500 111.660   0.307 F   0
   11   15   10   109.500 109.234   0.253 F   0
   11   15   12   109.500 110.803   0.252 F   0
   11   16   10   109.500 110.616   0.253 F   0
   11   16   12   109.500 107.967   0.252 F   0
   11   16   15   108.600 106.428   0.209 F   0
   12   13   11   120.000 119.279   0.178 F   0
   12   17   11   120.000 118.521   0.243 F   0
   12   17   13   120.000 122.198   0.176 F   0
   17   18   12   115.000 119.905   0.409 F   0
   17   21   12   115.000 121.013   0.333 F   0
   17   21   18   104.000 115.131   0.182 F   0
   18   19   17   109.500 110.222   0.307 F   0
   18   22   17   109.500 108.555   0.253 F   0
   18   22   19   109.500 111.498   0.251 F   0
   18   23   17   109.500 108.007   0.253 F   0
   18   23   19   109.500 109.531   0.251 F   0
   18   23   22   108.600 108.949   0.209 F   0
   19   20   18   120.000 117.999   0.178 F   0
   19   24   18   120.000 121.664   0.242 F   0
   19   24   20   120.000 120.323   0.176 F   0
   24   25   19   115.000 126.716   0.409 F   0
   24   28   19   115.000 119.011   0.333 F   0
   24   28   25   104.000 114.102   0.182 F   0
   25   26   24   109.500 111.317   0.307 F   0
   25   29   24   109.500 110.197   0.253 F   0
   25   29   26   109.500 111.480   0.251 F   0
   25   30   24   109.500 108.769   0.253 F   0
   25   30   26   109.500 106.809   0.251 F   0
   25   30   29   108.600 108.122   0.209 F   0
   26   27   25   120.000 119.512   0.177 F   0
   26   31   25   120.000 118.752   0.241 F   0
   26   31   27   120.000 121.730   0.174 F   0
   31   32   26   113.000 120.818   0.042 F   0
   31   33   26   113.000 121.419   0.211 F   0
   31   33   32   113.000 115.414   0.105 F   0
   32   34   31   120.000 110.112   0.204 F   0
   32   35   31   120.000 107.155   0.204 F   0
   32   35   34   120.000 107.727   0.167 F   0
 torsion atoms        nrot   rings    phi0    phi      FC
    3    1    4    2   2      0     180.000   0.804   0.765
    3    1    7    2   2      0     180.000 162.786   1.135
    4    3    5    1   3      0     180.000 115.497   0.024
    4    3    5    7   3      0     180.000  49.014   0.032
    4    3    8    1   3      0     180.000 119.514   0.034
    4    3    8    7   3      0     180.000  75.976   0.045
    4    3    9    1   3      0     180.000   3.063   0.034
    4    3    9    7   3      0     180.000 167.573   0.045
    5    4    6    3   3      0     180.000  45.090   0.066
    5    4    6    8   3      0     180.000 168.143   0.115
    5    4    6    9   3      0     180.000  73.040   0.115
    5    4   10    3   3      0     180.000 135.312   0.041
    5    4   10    8   3      0     180.000  12.259   0.072
    5    4   10    9   3      0     180.000 106.559   0.072
   10    5   11    4   2      0     180.000   4.605   0.615
   10    5   11    6   2      0     180.000 174.987   0.833
   10    5   14    4   2      0     180.000 172.262   0.912
   10    5   14    6   2      0     180.000   7.329   1.236
   11   10   12    5   3      0     180.000 119.386   0.022
   11   10   12   14   3      0     180.000  48.760   0.032
   11   10   15    5   3      0     180.000 117.705   0.032
   11   10   15   14   3      0     180.000  74.149   0.045
   11   10   16    5   3      0     180.000   0.880   0.032
   11   10   16   14   3      0     180.000 169.026   0.045
   12   11   13   10   3      0     180.000  71.980   0.066
   12   11   13   15   3      0     180.000 166.011   0.115
   12   11   13   16   3      0     180.000  49.827   0.115
   12   11   17   10   3      0     180.000 107.571   0.041
   12   11   17   15   3      0     180.000  14.438   0.072
   12   11   17   16   3      0     180.000 130.621   0.072
   17   12   18   11   2      0     180.000 170.707   0.614
   17   12   18   13   2      0     180.000   8.831   0.832
   17   12   21   11   2      0     180.000  14.157   0.911
   17   12   21   13   2      0     180.000 165.380   1.235
   18   17   19   12   3      0     180.000 110.684   0.022
   18   17   19   21   3      0     180.000  47.184   0.032
   18   17   22   12   3      0     180.000 126.931   0.032
   18   17   22   21   3      0     180.000  75.200   0.045
   18   17   23   12   3      0     180.000   8.943   0.032
   18   17   23   21   3      0     180.000 166.812   0.045
   19   18   20   17   3      0     180.000  38.356   0.066
   19   18   20   22   3      0     180.000 158.990   0.115
   19   18   20   23   3      0     180.000  80.344   0.115
   19   18   24   17   3      0     180.000 142.957   0.041
   19   18   24   22   3      0     180.000  22.323   0.072
   19   18   24   23   3      0     180.000  98.343   0.072
   24   19   25   18   2      0     180.000   2.615   0.620
   24   19   25   20   2      0     180.000 178.728   0.840
   24   19   28   18   2      0     180.000 172.328   0.920
   24   19   28   20   2      0     180.000   6.329   1.247
   25   24   26   19   3      0     180.000 145.861   0.022
   25   24   26   28   3      0     180.000  29.295   0.032
   25   24   29   19   3      0     180.000  89.918   0.032
   25   24   29   28   3      0     180.000  94.926   0.045
   25   24   30   19   3      0     180.000  28.444   0.032
   25   24   30   28   3      0     180.000 146.712   0.045
   26   25   27   24   3      0     180.000  35.309   0.066
   26   25   27   29   3      0     180.000 158.801   0.115
   26   25   27   30   3      0     180.000  83.291   0.115
   26   25   31   24   3      0     180.000 145.529   0.041
   26   25   31   29   3      0     180.000  22.036   0.072
   26   25   31   30   3      0     180.000  95.872   0.072
   31   26   32   25   2      0     180.000 174.487   0.343
   31   26   32   27   2      0     180.000   6.369   0.465
   31   26   33   25   2      0     180.000  12.686   0.489
   31   26   33   27   2      0     180.000 168.170   0.663
   32   31   34   26   2      0     180.000 132.986   1.385
   32   31   34   33   2      0     180.000  64.177   1.974
   32   31   35   26   2      0     180.000  16.089   1.385
   32   31   35   33   2      0     180.000 178.926   1.974
 out-of-plane atoms          phi0    phi      FC
    3    7    1    4          0.000  14.174   0.133
    5    6   10    4          0.000  -0.344  23.920
   10   14    5   11          0.000   9.840   0.125
   12   13   17   11          0.000   0.406  23.974
   17   21   12   18          0.000  20.180   0.130
   19   20   24   18          0.000  -1.143  24.122
   24   28   19   25          0.000   4.052   0.116
   26   27   31   25          0.000  -0.751  28.543
   31   33   26   32          0.000  15.558  -0.052
   32   34   35   31          0.000  57.148   0.552
          #tors  :   80
          #nmol  :   6
          #optfrag :   6

 GFN-FF setup done.

           ------------------------------------------------- 
          |                   G F N - F F                   |
          |          A general generic force-field          |
          |                  Version 1.0.3                  | 
           ------------------------------------------------- 
      * Solvation model:               ALPB
        Solvent                        water
        Parameter file                 internal GFN-FF/ALPB
        Dielectric constant                8.0200E+01
        Reference state                gsolv [1 M gas/solution]
        Free energy shift                  3.6494E-04 Eh       2.2900E-01 kcal/mol
        Temperature                        2.9815E+02 K
        Density                            1.0000E+00 kg/L
        Solvent mass                       1.8000E+01 g/mol
        Interaction kernel             P16
        Born radius scaling (c1)           1.5056E+00
        Born radii integrator          GBOBC
        Born offset                        0.0000E+00 a0       0.0000E+00 AA
        H-bond correction              true
        Ion screening                  false
        Surface tension                    1.0000E-05 Eh       1.5569E+01 dyn/cm
        Grid points                               230 per atom
          Number of HB bonds (bound hydrogen)     330
          Number of HB bonds (unbound hydrogen)   44
          Number of XB bonds                      0

 E+G (total)                   0 d,  0 h,  0 min,  0.001 sec
 distance/D3 list               ...        0 min,  0.000 sec (  0.284%)
 non bonded repulsion           ...        0 min,  0.000 sec (  2.069%)
 dCN                            ...        0 min,  0.000 sec (  3.154%)
 EEQ energy and q               ...        0 min,  0.000 sec (  4.377%)
 D3                             ...        0 min,  0.000 sec (  7.806%)
 EEQ gradient                   ...        0 min,  0.000 sec (  4.271%)
 bonds                          ...        0 min,  0.000 sec (  0.896%)
 bend and torsion               ...        0 min,  0.000 sec (  4.139%)
 bonded ATM                     ...        0 min,  0.000 sec (  1.537%)
 HB/XB (incl list setup)        ...        0 min,  0.000 sec (  9.103%)
 GBSA                           ...        0 min,  0.000 sec ( 64.484%)

         :::::::::::::::::::::::::::::::::::::::::::::::::::::
         ::                     SUMMARY                     ::
         :::::::::::::::::::::::::::::::::::::::::::::::::::::
         :: total energy              -6.230759600520 Eh    ::
         :: total w/o Gsolv           -6.192435791440 Eh    ::
         :: total w/o Gsasa/hb        -6.226157173099 Eh    ::
         :: gradient norm              0.177969775632 Eh/a0 ::
         ::.................................................::
         :: bond energy               -6.280851722143 Eh    ::
         :: angle energy               0.029422596917 Eh    ::
         :: torsion energy             0.014632095952 Eh    ::
         :: repulsion energy           0.385247077469 Eh    ::
         :: electrostat energy        -0.308224091522 Eh    ::
         :: dispersion energy         -0.022747431593 Eh    ::
         :: HB energy                 -0.000687592958 Eh    ::
         :: XB energy                  0.000000000000 Eh    ::
         :: bonded atm energy         -0.009226723562 Eh    ::
         :: external energy            0.000000000000 Eh    ::
         :: -> Gsolv                  -0.038323809080 Eh    ::
         ::    -> Gborn               -0.033721381660 Eh    ::
         ::    -> Gsasa                0.009633111156 Eh    ::
         ::    -> Ghb                 -0.014600477832 Eh    ::
         ::    -> Gshift               0.000364939255 Eh    ::
         :: add. restraining           0.000000000000 Eh    ::
         :: total charge               0.000000000000 e     ::
         ::.................................................::
         :: atomisation energy         0.000000000000 Eh    ::
         :::::::::::::::::::::::::::::::::::::::::::::::::::::

      ----------------------------------------------------------- 
     |                   =====================                   |
     |                        A N C O P T                        |
     |                   =====================                   |
     |               Approximate Normal Coordinate               |
     |                Rational Function Optimizer                |
      ----------------------------------------------------------- 

          ...................................................
          :                      SETUP                      :
          :.................................................:
          :   optimization level         verytight          :
          :   max. optcycles                    10          :
          :   ANC micro-cycles                  10          :
          :   degrees of freedom                99          :
          :.................................................:
          :   RF solver                   davidson          :
          :   write xtbopt.log                true          :
          :   linear?                        false          :
          :   energy convergence         0.1000000E-06 Eh   :
          :   grad. convergence          0.2000000E-03 Eh/α :
          :   maxmium RF displ.          1.0000000          :
          :   Hlow (freq-cutoff)         0.1000000E-01      :
          :   Hmax (freq-cutoff)         5.0000000          :
          :   S6 in model hess.         20.0000000          :
          ...................................................

generating ANC from model Hessian ...
Using GFN-FF Lindh-Hessian
 Shifting diagonal of input Hessian by    0.0000000000000000     
 Lowest  eigenvalues of input Hessian
    0.000000    0.000000    0.000000    0.000000    0.000000    0.000000
    0.015751    0.020151    0.028658    0.031193    0.048561    0.056648
    0.063582    0.070802    0.086668    0.090735    0.097099    0.103179
 Highest eigenvalues
    3.343618    3.762018    3.860963    3.991778    4.154181    4.292605


........................................................................
.............................. CYCLE    1 ..............................
........................................................................
     iter. time                 ...        0 min,  0.001 sec
 * total energy  :    -6.2307596 Eh     change        0.0000000E+00 Eh
   gradient norm :     0.1779698 Eh/α   predicted     0.0000000E+00 (    NaN%)
   displ. norm   :     0.1306097 α      lambda       -0.1405662E-01
   maximum displ.:     0.0525122 α      in ANC's #49, #13, #25, ...

........................................................................
.............................. CYCLE    2 ..............................
........................................................................
     iter. time                 ...        0 min,  0.001 sec
 * total energy  :    -6.2404731 Eh     change       -0.9713474E-02 Eh
   gradient norm :     0.0650941 Eh/α   predicted    -0.7148205E-02 ( -26.41%)
   displ. norm   :     0.1038159 α      lambda       -0.4300576E-02
   maximum displ.:     0.0497729 α      in ANC's #49, #11, #22, ...

........................................................................
.............................. CYCLE    3 ..............................
........................................................................
     iter. time                 ...        0 min,  0.001 sec
 * total energy  :    -6.2429316 Eh     change       -0.2458484E-02 Eh
   gradient norm :     0.0178034 Eh/α   predicted    -0.2174076E-02 ( -11.57%)
   displ. norm   :     0.0360628 α      lambda       -0.4301142E-03
   maximum displ.:     0.0173826 α      in ANC's #49, #33, #35, ...

........................................................................
.............................. CYCLE    4 ..............................
........................................................................
     iter. time                 ...        0 min,  0.000 sec
 * total energy  :    -6.2432329 Eh     change       -0.3013132E-03 Eh
   gradient norm :     0.0104394 Eh/α   predicted    -0.2154155E-03 ( -28.51%)
   displ. norm   :     0.0322663 α      lambda       -0.2169924E-03
   maximum displ.:     0.0190816 α      in ANC's #33, #35, #49, ...

........................................................................
.............................. CYCLE    5 ..............................
........................................................................
     iter. time                 ...        0 min,  0.000 sec
 * total energy  :    -6.2433700 Eh     change       -0.1370825E-03 Eh
   gradient norm :     0.0050967 Eh/α   predicted    -0.1086899E-03 ( -20.71%)
   displ. norm   :     0.0221343 α      lambda       -0.6317441E-04
   maximum displ.:     0.0123542 α      in ANC's #33, #11, #4, ...

........................................................................
.............................. CYCLE    6 ..............................
........................................................................
     iter. time                 ...        0 min,  0.000 sec
 * total energy  :    -6.2434162 Eh     change       -0.4625725E-04 Eh
   gradient norm :     0.0043339 Eh/α   predicted    -0.3188886E-04 ( -31.06%)
   displ. norm   :     0.0242977 α      lambda       -0.4877838E-04
   maximum displ.:     0.0125075 α      in ANC's #33, #3, #11, ...

........................................................................
.............................. CYCLE    7 ..............................
........................................................................
     iter. time                 ...        0 min,  0.000 sec
 * total energy  :    -6.2434476 Eh     change       -0.3134513E-04 Eh
   gradient norm :     0.0034219 Eh/α   predicted    -0.2441085E-04 ( -22.12%)
   displ. norm   :     0.0113734 α      lambda       -0.1380097E-04
   maximum displ.:     0.0051305 α      in ANC's #3, #33, #1, ...

........................................................................
.............................. CYCLE    8 ..............................
........................................................................
     iter. time                 ...        0 min,  0.001 sec
 * total energy  :    -6.2434565 Eh     change       -0.8925903E-05 Eh
   gradient norm :     0.0017143 Eh/α   predicted    -0.6902762E-05 ( -22.67%)
   displ. norm   :     0.0092444 α      lambda       -0.3647094E-05
   maximum displ.:     0.0052962 α      in ANC's #1, #3, #31, ...

........................................................................
.............................. CYCLE    9 ..............................
........................................................................
     iter. time                 ...        0 min,  0.000 sec
 * total energy  :    -6.2434589 Eh     change       -0.2459697E-05 Eh
   gradient norm :     0.0008383 Eh/α   predicted    -0.1840851E-05 ( -25.16%)
   displ. norm   :     0.0033455 α      lambda       -0.6793350E-06
   maximum displ.:     0.0018837 α      in ANC's #1, #6, #3, ...

........................................................................
.............................. CYCLE   10 ..............................
........................................................................
     iter. time                 ...        0 min,  0.000 sec
 * total energy  :    -6.2434598 Eh     change       -0.8158492E-06 Eh
   gradient norm :     0.0005065 Eh/α   predicted    -0.3510342E-06 ( -56.97%)
   displ. norm   :     0.0111294 α      lambda       -0.1181707E-05
   maximum displ.:     0.0074146 α      in ANC's #1, #3, #2, ...

   *** FAILED TO CONVERGE GEOMETRY OPTIMIZATION IN 10 ITERATIONS ***


 ANCopt (total)                0 d,  0 h,  0 min,  0.007 sec
 optimizer setup                ...        0 min,  0.000 sec (  0.832%)
 model hessian                  ...        0 min,  0.000 sec (  3.345%)
 ANC generation                 ...        0 min,  0.001 sec (  8.926%)
 coordinate transformation      ...        0 min,  0.000 sec (  0.440%)
 single point calculation       ...        0 min,  0.005 sec ( 74.311%)
 optimization log               ...        0 min,  0.000 sec (  5.890%)
 hessian update                 ...        0 min,  0.000 sec (  0.705%)
 rational function              ...        0 min,  0.000 sec (  3.337%)

================
 final structure:
================
ATOM      1  C   GLY A   9      -6.719 -13.474   3.168  1.00  0.00           C  
ATOM      2  O   GLY A   9      -7.117 -14.149   2.251  1.00  0.00           O  
ATOM      3  N   GLY A  10      -5.590 -12.720   3.124  1.00  0.00           N  
ATOM      4  CA  GLY A  10      -4.796 -12.700   1.933  1.00  0.00           C  
ATOM      5  C   GLY A  10      -4.775 -11.332   1.304  1.00  0.00           C  
ATOM      6  O   GLY A  10      -5.831 -10.741   1.202  1.00  0.00           O  
ATOM      7  H   GLY A  10      -5.410 -11.966   3.792  1.00  0.00           H  
ATOM      8  HA2 GLY A  10      -3.797 -13.062   2.178  1.00  0.00           H  
ATOM      9  HA3 GLY A  10      -5.243 -13.411   1.227  1.00  0.00           H  
ATOM     10  N   GLY A  11      -3.614 -10.744   0.835  1.00  0.00           N  
ATOM     11  CA  GLY A  11      -2.287 -11.350   0.783  1.00  0.00           C  
ATOM     12  C   GLY A  11      -1.772 -11.424  -0.621  1.00  0.00           C  
ATOM     13  O   GLY A  11      -2.259 -12.226  -1.389  1.00  0.00           O  
ATOM     14  H   GLY A  11      -3.689  -9.875   0.311  1.00  0.00           H  
ATOM     15  HA2 GLY A  11      -1.607 -10.772   1.417  1.00  0.00           H  
ATOM     16  HA3 GLY A  11      -2.310 -12.362   1.192  1.00  0.00           H  
ATOM     17  N   GLY A  12      -0.759 -10.570  -0.996  1.00  0.00           N  
ATOM     18  CA  GLY A  12      -0.374 -10.467  -2.385  1.00  0.00           C  
ATOM     19  C   GLY A  12      -0.772  -9.132  -2.952  1.00  0.00           C  
ATOM     20  O   GLY A  12      -1.832  -8.659  -2.600  1.00  0.00           O  
ATOM     21  H   GLY A  12      -0.514  -9.761  -0.425  1.00  0.00           H  
ATOM     22  HA2 GLY A  12       0.703 -10.638  -2.460  1.00  0.00           H  
ATOM     23  HA3 GLY A  12      -0.885 -11.267  -2.932  1.00  0.00           H  
ATOM     24  N   GLY A  13       0.024  -8.457  -3.860  1.00  0.00           N  
ATOM     25  CA  GLY A  13       1.316  -8.898  -4.374  1.00  0.00           C  
ATOM     26  C   GLY A  13       1.505  -8.459  -5.805  1.00  0.00           C  
ATOM     27  O   GLY A  13       0.569  -8.478  -6.562  1.00  0.00           O  
ATOM     28  H   GLY A  13      -0.334  -7.613  -4.300  1.00  0.00           H  
ATOM     29  HA2 GLY A  13       2.107  -8.504  -3.734  1.00  0.00           H  
ATOM     30  HA3 GLY A  13       1.366  -9.990  -4.339  1.00  0.00           H  
ATOM     31  N   GLY A  14       2.762  -8.056  -6.243  1.00  0.00           N  
ATOM     32  CA  GLY A  14       3.024  -7.694  -7.559  1.00  0.00           C  
ATOM     33  H   GLY A  14       3.536  -7.974  -5.572  1.00  0.00           H  
ATOM     34  HA2 GLY A  14       3.882  -8.117  -8.009  1.00  0.00           H  
ATOM     35  HA3 GLY A  14       2.119  -7.807  -8.143  1.00  0.00           H  
END

 Bond Distances (Angstroems)
 ---------------------------
C1-O2=1.2061         C1-N3=1.3577         O2-C1=1.2061         N3-C1=1.3577         N3-C4=1.4312         N3-H7=1.0238         
C4-N3=1.4312         C4-C5=1.5059         C4-H8=1.0900         C4-H9=1.0973         C5-C4=1.5059         C5-O6=1.2141         
C5-N10=1.3836        O6-C5=1.2141         H7-N3=1.0238         H8-C4=1.0900         H9-C4=1.0973         N10-C5=1.3836        
N10-C11=1.4602       N10-H14=1.0172       C11-N10=1.4602       C11-C12=1.4970       C11-H15=1.0946       C11-H16=1.0916       
C12-C11=1.4970       C12-O13=1.2123       C12-N17=1.3766       O13-C12=1.2123       H14-N10=1.0172       H15-C11=1.0946       
H16-C11=1.0916       N17-C12=1.3766       N17-C18=1.4444       N17-H21=1.0208       C18-N17=1.4444       C18-C19=1.5044       
C18-H22=1.0933       C18-H23=1.0958       C19-C18=1.5044       C19-O20=1.2137       C19-N24=1.3831       O20-C19=1.2137       
H21-N17=1.0208       H22-C18=1.0933       H23-C18=1.0958       N24-C19=1.3831       N24-C25=1.4587       N24-H28=1.0167       
C25-N24=1.4587       C25-C26=1.5083       C25-H29=1.0913       C25-H30=1.0944       C26-C25=1.5083       C26-O27=1.2041       
C26-N31=1.3910       O27-C26=1.2041       H28-N24=1.0167       H29-C25=1.0913       H30-C25=1.0944       N31-C26=1.3910       
N31-C32=1.3892       N31-H33=1.0277       C32-N31=1.3892       C32-H34=1.0576       C32-H35=1.0827       H33-N31=1.0277       
H34-C32=1.0576       H35-C32=1.0827       
 C  H  Rav=1.0889 sigma=0.0111  Rmin=1.0576  Rmax=1.0973    10
 C  C  Rav=1.5039 sigma=0.0042  Rmin=1.4970  Rmax=1.5083     4
 N  H  Rav=1.0213 sigma=0.0041  Rmin=1.0167  Rmax=1.0277     5
 N  C  Rav=1.4076 sigma=0.0354  Rmin=1.3577  Rmax=1.4602    10
 O  C  Rav=1.2101 sigma=0.0042  Rmin=1.2041  Rmax=1.2141     5

 selected bond angles (degree)
 --------------------
N3-C1-O2=124.06                C4-N3-C1=119.77                H7-N3-C1=122.27                H7-N3-C4=115.76                
C5-C4-N3=111.61                H8-C4-N3=108.50                H8-C4-C5=112.53                H9-C4-N3=107.42                
H9-C4-C5=108.96                H9-C4-H8=107.61                O6-C5-C4=117.77                N10-C5-C4=122.61               
N10-C5-O6=119.62               C11-N10-C5=126.78              H14-N10-C5=118.37              H14-N10-C11=113.81             

 selected dihedral angles (degree)
 ---------------------------------
C4-N3-C1-O2=359.97            H7-N3-C1-O2=162.44            C5-C4-N3-C1=115.39            C5-C4-N3-H7=311.82            
H8-C4-N3-C1=239.94            H8-C4-N3-H7= 76.37            H9-C4-N3-C1=356.01            H9-C4-N3-H7=192.44            
O6-C5-C4-N3=314.55            O6-C5-C4-H8=192.29            O6-C5-C4-H9= 73.02            N10-C5-C4-N3=135.18           
N10-C5-C4-H8= 12.91           N10-C5-C4-H9=253.64           C11-N10-C5-C4=  4.46          C11-N10-C5-O6=185.10          
H14-N10-C5-C4=171.99          H14-N10-C5-O6=352.62          
           -------------------------------------------------
          |                Final Singlepoint                |
           -------------------------------------------------
         :::::::::::::::::::::::::::::::::::::::::::::::::::::
         ::                     SUMMARY                     ::
         :::::::::::::::::::::::::::::::::::::::::::::::::::::
         :: total energy              -6.243461058592 Eh    ::
         :: total w/o Gsolv           -6.205236861925 Eh    ::
         :: total w/o Gsasa/hb        -6.238982098974 Eh    ::
         :: gradient norm              0.000500234696 Eh/a0 ::
         ::.................................................::
         :: bond energy               -6.302351121105 Eh    ::
         :: angle energy               0.025680272456 Eh    ::
         :: torsion energy             0.013901078460 Eh    ::
         :: repulsion energy           0.392416005983 Eh    ::
         :: electrostat energy        -0.308103894083 Eh    ::
         :: dispersion energy         -0.022753560838 Eh    ::
         :: HB energy                 -0.000678825313 Eh    ::
         :: XB energy                  0.000000000000 Eh    ::
         :: bonded atm energy         -0.009319645892 Eh    ::
         :: external energy            0.000000000000 Eh    ::
         :: -> Gsolv                  -0.038224196667 Eh    ::
         ::    -> Gborn               -0.033745237048 Eh    ::
         ::    -> Gsasa                0.009659713807 Eh    ::
         ::    -> Ghb                 -0.014503612680 Eh    ::
         ::    -> Gshift               0.000364939255 Eh    ::
         :: add. restraining           0.005972828408 Eh    ::
         :: total charge              -0.000000000000 e     ::
         ::.................................................::
         :: atomisation energy         0.000000000000 Eh    ::
         :::::::::::::::::::::::::::::::::::::::::::::::::::::

           -------------------------------------------------
          |                Property Printout                |
           -------------------------------------------------
           -------------------------------------------------
          |                Geometry Summary                 |
           -------------------------------------------------

      molecular mass/u    :      285.2570109
   center of mass at/Å    :       -1.9706577     -10.4838364      -1.5490338
  moments of inertia/u·Å² :        0.3546165E+03   0.6559892E+04   0.6608060E+04
rotational constants/cm⁻¹ :        0.4753765E-01   0.2569803E-02   0.2551071E-02

 * 29 selected distances

     #   Z          #   Z                                           value/Å
     1   6  C       3   7  N                                      1.3577256
     3   7  N       4   6  C                                      1.4312182
     5   6  C       6   8  O                                      1.2141351
     3   7  N       7   1  H                                      1.0238196
     4   6  C       8   1  H                                      1.0900044
     4   6  C       9   1  H                                      1.0972589
     5   6  C      10   7  N                                      1.3836403
    10   7  N      11   6  C                                      1.4602210 (max)
    12   6  C      13   8  O                                      1.2123046
    10   7  N      14   1  H                                      1.0172367
    11   6  C      15   1  H                                      1.0946234
    11   6  C      16   1  H                                      1.0916314
    12   6  C      17   7  N                                      1.3766067
    17   7  N      18   6  C                                      1.4444367
    19   6  C      20   8  O                                      1.2137115
    17   7  N      21   1  H                                      1.0207857
    18   6  C      22   1  H                                      1.0932843
    18   6  C      23   1  H                                      1.0958055
    19   6  C      24   7  N                                      1.3831190
    24   7  N      25   6  C                                      1.4587255
    26   6  C      27   8  O                                      1.2040611
    24   7  N      28   1  H                                      1.0167439 (min)
    25   6  C      29   1  H                                      1.0912926
    25   6  C      30   1  H                                      1.0944348
    26   6  C      31   7  N                                      1.3909635
    31   7  N      32   6  C                                      1.3892223
    31   7  N      33   1  H                                      1.0277211
    32   6  C      34   1  H                                      1.0575790
    32   6  C      35   1  H                                      1.0826910

 * 4 distinct bonds (by element types)

   Z      Z             #   av. dist./Å        max./Å        min./Å
   1 H    6 C          10     1.0888605     1.0972589     1.0575790
   1 H    7 N           5     1.0212614     1.0277211     1.0167439
   6 C    7 N          10     1.4075879     1.4602210     1.3577256
   6 C    8 O           4     1.2110531     1.2141351     1.2040611


optimized geometry written to: xtbopt.pdb


           -------------------------------------------------
          | TOTAL ENERGY               -6.243461058592 Eh   |
          | GRADIENT NORM               0.000500234696 Eh/α |
           -------------------------------------------------
########################################################################
[WARNING] Runtime exception occurred
-1- gfnff_setup: Could not read topology file.
########################################################################

------------------------------------------------------------------------
 unit  open   action     filename
   10 false : read       xtb_settings.inp
   10 false : read       substructure_37.pdb
   10 false : read       xtb_settings.inp
   10 false : written    gfnff_topo
   10 false : written    gfnff_adjacency
   10 false : written    gfnff_charges
   10 false : deleted    .xtboptok
   10 false : replaced   xtbopt.log
   11 false : created    .xtboptok
   11 false : replaced   gfnff_charges
   10 false : replaced   xtbopt.pdb

------------------------------------------------------------------------
 * finished run on 2025/05/27 at 09:37:47.760     
------------------------------------------------------------------------
 total:
 * wall-time:     0 d,  0 h,  0 min,  0.012 sec
 *  cpu-time:     0 d,  0 h,  0 min,  0.012 sec
 * ratio c/w:     1.000 speedup
 SCF:
 * wall-time:     0 d,  0 h,  0 min,  0.001 sec
 *  cpu-time:     0 d,  0 h,  0 min,  0.001 sec
 * ratio c/w:     0.999 speedup
 ANC optimizer:
 * wall-time:     0 d,  0 h,  0 min,  0.008 sec
 *  cpu-time:     0 d,  0 h,  0 min,  0.008 sec
 * ratio c/w:     1.000 speedup

