      -----------------------------------------------------------      
     |                   =====================                   |     
     |                           x T B                           |     
     |                   =====================                   |     
     |                         S. Grimme                         |     
     |          Mulliken Center for Theoretical Chemistry        |     
     |                    University of Bonn                     |     
      -----------------------------------------------------------      

   * xtb version 6.6.1 (8d0f1dd) compiled by 'conda@1efc2f54142f' on 2023-08-01

   xtb is free software: you can redistribute it and/or modify it under
   the terms of the GNU Lesser General Public License as published by
   the Free Software Foundation, either version 3 of the License, or
   (at your option) any later version.
   
   xtb is distributed in the hope that it will be useful,
   but WITHOUT ANY WARRANTY; without even the implied warranty of
   MERCHANTABILITY or FITNESS FOR A PARTICULAR PURPOSE.  See the
   GNU Lesser General Public License for more details.
   
   Cite this work as:
   * C. Bannwarth, E. Caldeweyher, S. Ehlert, A. Hansen, P. Pracht,
     J. Seibert, S. Spicher, S. Grimme, WIREs Comput. Mol. Sci., 2020, 11,
     e01493. DOI: 10.1002/wcms.1493
   
   for GFN2-xTB:
   * C. Bannwarth, S. Ehlert and S. Grimme., J. Chem. Theory Comput., 2019,
     15, 1652-1671. DOI: 10.1021/acs.jctc.8b01176
   for GFN1-xTB:
   * S. Grimme, C. Bannwarth, P. Shushkov, J. Chem. Theory Comput., 2017,
     13, 1989-2009. DOI: 10.1021/acs.jctc.7b00118
   for GFN0-xTB:
   * P. Pracht, E. Caldeweyher, S. Ehlert, S. Grimme, ChemRxiv, 2019, preprint.
     DOI: 10.26434/chemrxiv.8326202.v1
   for GFN-FF:
   * S. Spicher and S. Grimme, Angew. Chem. Int. Ed., 2020, 59, 15665-15673.
     DOI: 10.1002/anie.202004239
   
   for ALPB and GBSA implicit solvation:
   * S. Ehlert, M. Stahn, S. Spicher, S. Grimme, J. Chem. Theory Comput.,
     2021, 17, 4250-4261. DOI: 10.1021/acs.jctc.1c00471
   
   for DFT-D4:
   * E. Caldeweyher, C. Bannwarth and S. Grimme, J. Chem. Phys., 2017,
     147, 034112. DOI: 10.1063/1.4993215
   * E. Caldeweyher, S. Ehlert, A. Hansen, H. Neugebauer, S. Spicher,
     C. Bannwarth and S. Grimme, J. Chem. Phys., 2019, 150, 154122.
     DOI: 10.1063/1.5090222
   * E. Caldeweyher, J.-M. Mewes, S. Ehlert and S. Grimme, Phys. Chem. Chem. Phys.
     2020, 22, 8499-8512. DOI: 10.1039/D0CP00502A
   
   for sTDA-xTB:
   * S. Grimme and C. Bannwarth, J. Chem. Phys., 2016, 145, 054103.
     DOI: 10.1063/1.4959605
   
   in the mass-spec context:
   * V. Asgeirsson, C. Bauer and S. Grimme, Chem. Sci., 2017, 8, 4879.
     DOI: 10.1039/c7sc00601b
   * J. Koopman and S. Grimme, ACS Omega 2019, 4, 12, 15120-15133.
     DOI: 10.1021/acsomega.9b02011
   
   for metadynamics refer to:
   * S. Grimme, J. Chem. Theory Comput., 2019, 155, 2847-2862
     DOI: 10.1021/acs.jctc.9b00143
   
   for SPH calculations refer to:
   * S. Spicher and S. Grimme, J. Chem. Theory Comput., 2021, 17, 1701-1714
     DOI: 10.1021/acs.jctc.0c01306
   
   with help from (in alphabetical order)
   P. Atkinson, C. Bannwarth, F. Bohle, G. Brandenburg, E. Caldeweyher
   M. Checinski, S. Dohm, S. Ehlert, S. Ehrlich, I. Gerasimov, C. Hölzer
   A. Katbashev, J. Koopman, C. Lavigne, S. Lehtola, F. März, M. Müller,
   F. Musil, H. Neugebauer, J. Pisarek, C. Plett, P. Pracht, F. Pultar,
   J. Seibert, P. Shushkov, S. Spicher, M. Stahn, M. Steiner, T. Strunk,
   J. Stückrath, T. Rose, and J. Unsleber
   
 * started run on 2025/05/27 at 09:38:03.829     

           -------------------------------------------------
          |                Calculation Setup                |
           -------------------------------------------------

          program call               : xtb substructure_99.pdb --gfnff --input xtb_settings.inp --opt vtight --alpb water --verbose
          coordinate file            : substructure_99.pdb
          xtbhome directory          : /home/dargen3
          path for xtb               : /home/dargen3
          xcontrol input file        : xtb_settings.inp
          omp threads                :                     1

$$$$$$$$$$$$$$$$$$$$$$$$$$$$$$$$$$$$$$$$$$$$$$$$$$$$$$$$$$$$$$$$$$$$$$$$
 CONSTRAINTS & SCANS: DEBUG SECTION
$$$$$$$$$$$$$$$$$$$$$$$$$$$$$$$$$$$$$$$$$$$$$$$$$$$$$$$$$$$$$$$$$$$$$$$$
   ID    Z sym.   atoms
    1    6  C     1, 4, 5, 11, 12, 18, 19, 25, 26, 32
    2    8  O     2, 6, 13, 20, 27
    3    7  N     3, 10, 17, 24, 31
    4    1  H     7-9, 14-16, 21-23, 28-30, 33-35
> constrain
-> atoms: 1, 2, 3, 4, 5, 6, 7, 8, 9, 10, 11, 12, 13, 14, 15, 16, 18, 24, 25, 26, 27, 28, 29, 30, 31, 32, 33, 34, 35
--> 1: 1
--> 2: 2
--> 3: 3
--> 4: 4
--> 5: 5
--> 6: 6
--> 7: 7
--> 8: 8
--> 9: 9
--> 10: 10
--> 11: 11
--> 12: 12
--> 13: 13
--> 14: 14
--> 15: 15
--> 16: 16
--> 17: 18
--> 18: 24
--> 19: 25
--> 20: 26
--> 21: 27
--> 22: 28
--> 23: 29
--> 24: 30
--> 25: 31
--> 26: 32
--> 27: 33
--> 28: 34
--> 29: 35
-> force constant=1.0
$$$$$$$$$$$$$$$$$$$$$$$$$$$$$$$$$$$$$$$$$$$$$$$$$$$$$$$$$$$$$$$$$$$$$$$$
           -------------------------------------------------
          |                   Constraints                   |
           -------------------------------------------------

 * 29 constrained atom positions
   positions refering to input geometry

     #   Z                                   position/Å      displ./Å
     1   6 C     -6.7220006   -13.4830013     3.1740003     0.0000000
     2   8 O     -7.0960007   -14.1800013     2.2540002     0.0000000
     3   7 N     -5.6020005   -12.6930012     3.1110003     0.0000000
     4   6 C     -4.7940004   -12.6990012     1.9410002     0.0000000
     5   6 C     -4.7850004   -11.3490011     1.2660001     0.0000000
     6   8 O     -5.8460005   -10.7750010     1.1300001     0.0000000
     7   1 H     -5.4360005   -11.9320011     3.7740004     0.0000000
     8   1 H     -3.7980004   -13.0430012     2.1990002     0.0000000
     9   1 H     -5.2280005   -13.4320012     1.2410001     0.0000000
    10   7 N     -3.6260003   -10.7680010     0.7830001     0.0000000
    11   6 C     -2.2890002   -11.3470011     0.7820001     0.0000000
    12   6 C     -1.7290002   -11.4530011    -0.6030001     0.0000000
    13   8 O     -2.1210002   -12.3340011    -1.3370001     0.0000000
    14   1 H     -3.7050003    -9.9170009     0.2310000     0.0000000
    15   1 H     -1.6350002   -10.7460010     1.4200001     0.0000000
    16   1 H     -2.3040002   -12.3540011     1.2150001     0.0000000
    18   6 C     -0.3730000   -10.4770010    -2.3880002     0.0000000
    24   7 N     -0.0070000    -8.4950008    -3.9170004     0.0000000
    25   6 C      1.3240001    -8.8870008    -4.3620004     0.0000000
    26   6 C      1.5390001    -8.5210008    -5.8140005     0.0000000
    27   8 O      0.6200001    -8.6220008    -6.5980006     0.0000000
    28   1 H     -0.3830000    -7.6820007    -4.3970004     0.0000000
    29   1 H      2.0730002    -8.4450008    -3.7290003     0.0000000
    30   1 H      1.4150001    -9.9870009    -4.2910004     0.0000000
    31   7 N      2.7870003    -8.0920008    -6.2150006     0.0000000
    32   6 C      3.0050003    -7.6070007    -7.5660007     0.0000000
    33   1 H      3.5050003    -7.8390007    -5.5360005     0.0000000
    34   1 H      3.8630004    -8.1100008    -8.0050007     0.0000000
    35   1 H      2.1240002    -7.8780007    -8.1540008     0.0000000

     applying 406 atom pairwise harmonic potentials
       applied force constant per pair:     0.0357143
     effective force constant per atom:     1.0000000
         constraining energy/grad norm:     0.0000000     0.0000000

     total constraint energy/grad norm:     0.0000000     0.0000000

          charge from pdb residues: 0

          entering GFN-FF setup routine... 35

          ==================== Thresholds ====================
          CN  :   150.00000
          rep :   500.00000
          disp:  2500.00000
          HB1 :   250.00000
          HB2 :   450.00000

          Pauling EN used:
          Z : 1  EN :  2.20
          Z : 6  EN :  2.55
          Z : 7  EN :  3.04
          Z : 8  EN :  3.44
          electric field strengths (au): 0.000

           ------------------------------------------------- 
          |           Force Field Initialization            |
           ------------------------------------------------- 

          distances ...
          ----------------------------------------
          generating topology and atomic info file ...
          pair mat ...
          computing topology distances matrix with Floyd-Warshall algo ...
          making topology EEQ charges ...
          #fragments for EEQ constrain from pdb file: 6
          ----------------------------------------
          generating topology and atomic info file ...
          pair mat ...
          computing topology distances matrix with Floyd-Warshall algo ...
          making topology EEQ charges ...
          #fragments for EEQ constrain from pdb file: 6
          rings ...
          # BATM   270
          # H in HB   15
          doing iterative Hueckel for 5 subsystem(s) ...
          iterative Hueckel run to get P ...
Hueckel system :  1 charge :   0 ndim/Nel :    3    3   eps(HOMO/LUMO)   -0.953512   -0.953512
Hueckel system :  2 charge :   0 ndim/Nel :    3    4   eps(HOMO/LUMO)   -0.911362   -0.911362
Hueckel system :  3 charge :   0 ndim/Nel :    3    4   eps(HOMO/LUMO)   -0.911922   -0.911922
Hueckel system :  4 charge :   0 ndim/Nel :    3    4   eps(HOMO/LUMO)   -0.910012   -0.910012
Hueckel system :  5 charge :   0 ndim/Nel :    4    5   eps(HOMO/LUMO)    1.305315    1.305315
WARNING: probably wrong pi occupation for system 5. Second attempt with Nel=Nel-1!
 at,nb,topo%hyb,Npiel:          26  C             3           2           1
 at,nb,topo%hyb,Npiel:          27  O             1           2           1
 at,nb,topo%hyb,Npiel:          31  N             3           3           2
 at,nb,topo%hyb,Npiel:          32  C             3           2           1

          eigenvalues
 #    :           1          2          3          4
 occ. :        2.000      1.987      0.013      0.000
 eps  :        -4.349     -2.183      1.305      3.389
Hueckel system :  5 charge :   0 ndim/Nel :    4    4   eps(HOMO/LUMO)   -2.182828    1.305315

  atom   neighbors  erfCN metchar sp-hybrid imet pi  qest     coordinates
    1   C      2    1.94   0.00        -2    0    1   0.120  -12.702739  -25.479177    5.997991
    2   O      1    0.98   0.00         2    0    1  -0.120  -13.409497  -26.796316    4.259443
    3   N      3    2.79   0.00        -3    0    1  -0.166  -10.586246  -23.986294    5.878938
    4   C      4    3.50   0.00         3    0    0   0.005   -9.059347  -23.997632    3.667958
    5   C      3    2.79   0.00         2    0    1   0.174   -9.042340  -21.446502    2.392393
    6   O      1    0.98   0.00         2    0    1  -0.352  -11.047339  -20.361799    2.135391
    7   H      1    0.98   0.00         0    0    0   0.153  -10.272551  -22.548212    7.131826
    8   H      1    0.97   0.00         0    0    0   0.093   -7.177180  -24.647698    4.155508
    9   H      1    0.97   0.01         0    0    0   0.093   -9.879488  -25.382801    2.345150
   10   N      3    2.79   0.00        -3    0    1  -0.168   -6.852147  -20.348571    1.479656
   11   C      4    3.49   0.00         3    0    0   0.006   -4.325583  -21.442722    1.477766
   12   C      3    2.80   0.00         2    0    1   0.175   -3.267336  -21.643033   -1.139505
   13   O      1    0.98   0.00         2    0    1  -0.352   -4.008109  -23.307882   -2.526564
   14   H      1    0.98   0.00         0    0    0   0.154   -7.001435  -18.740414    0.436527
   15   H      1    0.97   0.00         0    0    0   0.092   -3.089702  -20.306997    2.683411
   16   H      1    0.97   0.00         0    0    0   0.092   -4.353929  -23.345677    2.296017
   17   N      3    2.79   0.00        -3    0    1  -0.167   -1.492884  -19.895037   -1.893506
   18   C      4    3.49   0.00         3    0    0   0.005   -0.704868  -19.798661   -4.512666
   19   C      3    2.79   0.00         2    0    1   0.178   -1.523119  -17.326899   -5.691855
   20   O      1    0.98   0.00         2    0    1  -0.353   -3.586700  -16.499199   -5.126827
   21   H      1    0.98   0.00         0    0    0   0.151   -1.201866  -18.271762   -0.891951
   22   H      1    0.97   0.00         0    0    0   0.093    1.343595  -20.027317   -4.584476
   23   H      1    0.97   0.00         0    0    0   0.093   -1.589260  -21.363354   -5.499103
   24   N      3    2.79   0.00        -3    0    1  -0.170   -0.013228  -16.053223   -7.402057
   25   C      4    3.49   0.00         3    0    0   0.006    2.501997  -16.793996   -8.242985
   26   C      3    2.80   0.00         2    0    1   0.195    2.908289  -16.102356  -10.986868
   27   O      1    0.98   0.00         2    0    1  -0.357    1.171630  -16.293219  -12.468413
   28   H      1    0.98   0.00         0    0    0   0.147   -0.723765  -14.516876   -8.309126
   29   H      1    0.97   0.00         0    0    0   0.090    3.917402  -15.958737   -7.046789
   30   H      1    0.97   0.01         0    0    0   0.090    2.673962  -18.872695   -8.108815
   31   N      3    2.79   0.00         3    0    1  -0.226    5.266667  -15.291664  -11.744648
   32   C      3    2.78   0.00         2    0    1  -0.008    5.678627  -14.375147  -14.297668
   33   H      1    0.98   0.00         0    0    0   0.123    6.623490  -14.813563  -10.461524
   34   H      1    0.97   0.00         0    0    0   0.055    7.300012  -15.325679  -15.127258
   35   H      1    0.97   0.00         0    0    0   0.055    4.013778  -14.887262  -15.408827

molecular fragment  # atoms  topo charge
       1             2            -0.000
       2             7            -0.000
       3             7            -0.000
       4             7             0.000
       5             7             0.000
       6             5            -0.000


          #atoms :   35
          #bonds :   34

 bond atoms        type  in ring    R      R0    piBO    fqq  kbond(tot)  alp
 O  C     2    1      2    0     1.213   0.996   0.799   1.047  -0.252   0.584
 N  C     3    1      2    0     1.372   1.215   0.504   1.047  -0.235   0.524
 C  N     4    3      1    0     1.422   1.326 -99.000   1.033  -0.151   0.496
 C  C     5    4      1    0     1.509   1.332 -99.000   1.013  -0.162   0.475
 O  C     6    5      2    0     1.214   1.031   0.856   1.047  -0.262   0.584
 H  N     7    3      1    0     1.023   0.890 -99.000   1.047  -0.176   0.551
 H  C     8    4      1    0     1.085   0.977 -99.000   1.018  -0.164   0.482
 H  C     9    4      1    0     1.103   0.977 -99.000   1.018  -0.164   0.482
 N  C    10    5      2    0     1.383   1.263   0.503   1.047  -0.234   0.524
 C  N    11   10      1    0     1.457   1.326 -99.000   1.036  -0.151   0.496
 C  C    12   11      1    0     1.498   1.332 -99.000   1.011  -0.162   0.475
 O  C    13   12      2    0     1.212   1.031   0.856   1.047  -0.262   0.584
 H  N    14   10      1    0     1.017   0.890 -99.000   1.047  -0.176   0.551
 H  C    15   11      1    0     1.094   0.976 -99.000   1.016  -0.164   0.482
 H  C    16   11      1    0     1.096   0.976 -99.000   1.016  -0.164   0.482
 N  C    17   12      2    0     1.377   1.263   0.503   1.047  -0.234   0.524
 C  N    18   17      1    0     1.448   1.326 -99.000   1.033  -0.151   0.496
 C  C    19   18      1    0     1.512   1.332 -99.000   1.014  -0.162   0.475
 O  C    20   19      2    0     1.214   1.031   0.856   1.047  -0.262   0.584
 H  N    21   17      1    0     1.021   0.890 -99.000   1.047  -0.176   0.551
 H  C    22   18      1    0     1.091   0.977 -99.000   1.018  -0.164   0.482
 H  C    23   18      1    0     1.085   0.977 -99.000   1.018  -0.164   0.482
 N  C    24   19      2    0     1.383   1.263   0.504   1.047  -0.234   0.524
 C  N    25   24      1    0     1.457   1.326 -99.000   1.034  -0.151   0.496
 C  C    26   25      1    0     1.513   1.332 -99.000   1.011  -0.162   0.475
 O  C    27   26      2    0     1.212   1.018   0.930   1.047  -0.274   0.584
 H  N    28   24      1    0     1.016   0.890 -99.000   1.047  -0.176   0.551
 H  C    29   25      1    0     1.076   0.976 -99.000   1.018  -0.164   0.482
 H  C    30   25      1    0     1.106   0.976 -99.000   1.018  -0.164   0.482
 N  C    31   26      2    0     1.379   1.291   0.346   1.047  -0.203   0.524
 C  N    32   31      2    0     1.452   1.190   0.906   1.006  -0.302   0.524
 H  N    33   31      1    0     1.020   0.890 -99.000   1.047  -0.176   0.551
 H  C    34   32      1    0     1.087   0.950 -99.000   1.029  -0.179   0.490
 H  C    35   32      1    0     1.093   0.950 -99.000   1.029  -0.179   0.490
          #angl  :   55

 angle atoms        phi0    phi      FC  pi rings
    1    3    2   145.000 123.201   0.082 F   0
    3    4    1   115.000 119.949   0.411 F   0
    3    7    1   115.000 122.080   0.335 F   0
    3    7    4   104.000 116.377   0.182 F   0
    4    5    3   109.500 111.567   0.307 F   0
    4    8    3   109.500 109.109   0.253 F   0
    4    8    5   109.500 112.612   0.251 F   0
    4    9    3   109.500 107.550   0.253 F   0
    4    9    5   109.500 108.243   0.251 F   0
    4    9    8   108.600 107.552   0.209 F   0
    5    6    4   120.000 117.891   0.178 F   0
    5   10    4   120.000 122.461   0.243 F   0
    5   10    6   120.000 119.636   0.176 F   0
   10   11    5   115.000 127.019   0.409 F   0
   10   14    5   115.000 118.399   0.333 F   0
   10   14   11   104.000 113.783   0.182 F   0
   11   12   10   109.500 111.832   0.307 F   0
   11   15   10   109.500 109.268   0.253 F   0
   11   15   12   109.500 110.780   0.252 F   0
   11   16   10   109.500 110.623   0.253 F   0
   11   16   12   109.500 107.780   0.252 F   0
   11   16   15   108.600 106.414   0.209 F   0
   12   13   11   120.000 119.381   0.178 F   0
   12   17   11   120.000 118.381   0.243 F   0
   12   17   13   120.000 122.234   0.176 F   0
   17   18   12   115.000 119.818   0.409 F   0
   17   21   12   115.000 121.167   0.333 F   0
   17   21   18   104.000 115.069   0.182 F   0
   18   19   17   109.500 110.050   0.307 F   0
   18   22   17   109.500 108.385   0.253 F   0
   18   22   19   109.500 111.460   0.251 F   0
   18   23   17   109.500 108.021   0.253 F   0
   18   23   19   109.500 109.755   0.251 F   0
   18   23   22   108.600 109.091   0.209 F   0
   19   20   18   120.000 117.899   0.178 F   0
   19   24   18   120.000 121.746   0.242 F   0
   19   24   20   120.000 120.342   0.176 F   0
   24   25   19   115.000 126.627   0.409 F   0
   24   28   19   115.000 119.034   0.333 F   0
   24   28   25   104.000 114.138   0.182 F   0
   25   26   24   109.500 110.969   0.307 F   0
   25   29   24   109.500 110.229   0.253 F   0
   25   29   26   109.500 111.497   0.251 F   0
   25   30   24   109.500 108.851   0.253 F   0
   25   30   26   109.500 106.890   0.251 F   0
   25   30   29   108.600 108.276   0.209 F   0
   26   27   25   120.000 119.529   0.177 F   0
   26   31   25   120.000 118.875   0.241 F   0
   26   31   27   120.000 121.592   0.174 F   0
   31   32   26   113.000 120.684   0.042 F   0
   31   33   26   113.000 121.366   0.211 F   0
   31   33   32   113.000 115.521   0.105 F   0
   32   34   31   120.000 109.858   0.204 F   0
   32   35   31   120.000 107.257   0.204 F   0
   32   35   34   120.000 107.704   0.167 F   0
 torsion atoms        nrot   rings    phi0    phi      FC
    3    1    4    2   2      0     180.000   2.050   0.765
    3    1    7    2   2      0     180.000 163.025   1.135
    4    3    5    1   3      0     180.000 116.288   0.024
    4    3    5    7   3      0     180.000  49.614   0.032
    4    3    8    1   3      0     180.000 118.648   0.034
    4    3    8    7   3      0     180.000  75.450   0.045
    4    3    9    1   3      0     180.000   2.270   0.034
    4    3    9    7   3      0     180.000 168.171   0.045
    5    4    6    3   3      0     180.000  45.274   0.066
    5    4    6    8   3      0     180.000 168.363   0.115
    5    4    6    9   3      0     180.000  72.869   0.115
    5    4   10    3   3      0     180.000 135.976   0.041
    5    4   10    8   3      0     180.000  12.887   0.072
    5    4   10    9   3      0     180.000 105.880   0.072
   10    5   11    4   2      0     180.000   2.924   0.615
   10    5   11    6   2      0     180.000 175.805   0.833
   10    5   14    4   2      0     180.000 172.007   0.912
   10    5   14    6   2      0     180.000   6.721   1.236
   11   10   12    5   3      0     180.000 121.065   0.022
   11   10   12   14   3      0     180.000  48.446   0.032
   11   10   15    5   3      0     180.000 115.916   0.032
   11   10   15   14   3      0     180.000  74.573   0.045
   11   10   16    5   3      0     180.000   0.916   0.032
   11   10   16   14   3      0     180.000 168.595   0.045
   12   11   13   10   3      0     180.000  76.417   0.066
   12   11   13   15   3      0     180.000 161.426   0.115
   12   11   13   16   3      0     180.000  45.381   0.115
   12   11   17   10   3      0     180.000 102.891   0.041
   12   11   17   15   3      0     180.000  19.266   0.072
   12   11   17   16   3      0     180.000 135.311   0.072
   17   12   18   11   2      0     180.000 170.942   0.614
   17   12   18   13   2      0     180.000   8.345   0.832
   17   12   21   11   2      0     180.000  14.394   0.911
   17   12   21   13   2      0     180.000 164.893   1.235
   18   17   19   12   3      0     180.000 114.247   0.022
   18   17   19   21   3      0     180.000  43.670   0.032
   18   17   22   12   3      0     180.000 123.633   0.032
   18   17   22   21   3      0     180.000  78.451   0.045
   18   17   23   12   3      0     180.000   5.561   0.032
   18   17   23   21   3      0     180.000 163.478   0.045
   19   18   20   17   3      0     180.000  39.302   0.066
   19   18   20   22   3      0     180.000 159.582   0.115
   19   18   20   23   3      0     180.000  79.448   0.115
   19   18   24   17   3      0     180.000 142.008   0.041
   19   18   24   22   3      0     180.000  21.728   0.072
   19   18   24   23   3      0     180.000  99.242   0.072
   24   19   25   18   2      0     180.000   1.978   0.620
   24   19   25   20   2      0     180.000 179.363   0.840
   24   19   28   18   2      0     180.000 172.555   0.920
   24   19   28   20   2      0     180.000   6.104   1.247
   25   24   26   19   3      0     180.000 145.127   0.022
   25   24   26   28   3      0     180.000  29.635   0.032
   25   24   29   19   3      0     180.000  90.853   0.032
   25   24   29   28   3      0     180.000  94.384   0.045
   25   24   30   19   3      0     180.000  27.765   0.032
   25   24   30   28   3      0     180.000 146.998   0.045
   26   25   27   24   3      0     180.000  36.992   0.066
   26   25   27   29   3      0     180.000 160.285   0.115
   26   25   27   30   3      0     180.000  81.562   0.115
   26   25   31   24   3      0     180.000 143.678   0.041
   26   25   31   29   3      0     180.000  20.385   0.072
   26   25   31   30   3      0     180.000  97.768   0.072
   31   26   32   25   2      0     180.000 173.942   0.343
   31   26   32   27   2      0     180.000   6.743   0.465
   31   26   33   25   2      0     180.000  12.421   0.489
   31   26   33   27   2      0     180.000 168.264   0.663
   32   31   34   26   2      0     180.000 129.478   1.385
   32   31   34   33   2      0     180.000  67.973   1.974
   32   31   35   26   2      0     180.000  12.686   1.385
   32   31   35   33   2      0     180.000 175.234   1.974
 out-of-plane atoms          phi0    phi      FC
    3    7    1    4          0.000  12.895   0.133
    5    6   10    4          0.000  -1.073  23.920
   10   14    5   11          0.000   8.697   0.125
   12   13   17   11          0.000   0.627  23.974
   17   21   12   18          0.000  20.200   0.130
   19   20   24   18          0.000  -1.141  24.122
   24   28   19   25          0.000   4.385   0.116
   26   27   31   25          0.000  -0.599  28.543
   31   33   26   32          0.000  15.818  -0.052
   32   34   35   31          0.000  57.313   0.552
          #tors  :   80
          #nmol  :   6
          #optfrag :   6

 GFN-FF setup done.

           ------------------------------------------------- 
          |                   G F N - F F                   |
          |          A general generic force-field          |
          |                  Version 1.0.3                  | 
           ------------------------------------------------- 
      * Solvation model:               ALPB
        Solvent                        water
        Parameter file                 internal GFN-FF/ALPB
        Dielectric constant                8.0200E+01
        Reference state                gsolv [1 M gas/solution]
        Free energy shift                  3.6494E-04 Eh       2.2900E-01 kcal/mol
        Temperature                        2.9815E+02 K
        Density                            1.0000E+00 kg/L
        Solvent mass                       1.8000E+01 g/mol
        Interaction kernel             P16
        Born radius scaling (c1)           1.5056E+00
        Born radii integrator          GBOBC
        Born offset                        0.0000E+00 a0       0.0000E+00 AA
        H-bond correction              true
        Ion screening                  false
        Surface tension                    1.0000E-05 Eh       1.5569E+01 dyn/cm
        Grid points                               230 per atom
          Number of HB bonds (bound hydrogen)     329
          Number of HB bonds (unbound hydrogen)   44
          Number of XB bonds                      0

 E+G (total)                   0 d,  0 h,  0 min,  0.001 sec
 distance/D3 list               ...        0 min,  0.000 sec (  0.266%)
 non bonded repulsion           ...        0 min,  0.000 sec (  1.852%)
 dCN                            ...        0 min,  0.000 sec (  3.049%)
 EEQ energy and q               ...        0 min,  0.000 sec (  4.288%)
 D3                             ...        0 min,  0.000 sec (  7.710%)
 EEQ gradient                   ...        0 min,  0.000 sec (  4.334%)
 bonds                          ...        0 min,  0.000 sec (  0.877%)
 bend and torsion               ...        0 min,  0.000 sec (  3.718%)
 bonded ATM                     ...        0 min,  0.000 sec (  1.572%)
 HB/XB (incl list setup)        ...        0 min,  0.000 sec (  9.352%)
 GBSA                           ...        0 min,  0.000 sec ( 65.208%)

         :::::::::::::::::::::::::::::::::::::::::::::::::::::
         ::                     SUMMARY                     ::
         :::::::::::::::::::::::::::::::::::::::::::::::::::::
         :: total energy              -6.230300370277 Eh    ::
         :: total w/o Gsolv           -6.192316646812 Eh    ::
         :: total w/o Gsasa/hb        -6.225784853625 Eh    ::
         :: gradient norm              0.176460420538 Eh/a0 ::
         ::.................................................::
         :: bond energy               -6.280729311223 Eh    ::
         :: angle energy               0.029621329883 Eh    ::
         :: torsion energy             0.015079866185 Eh    ::
         :: repulsion energy           0.384946836786 Eh    ::
         :: electrostat energy        -0.308684378512 Eh    ::
         :: dispersion energy         -0.022733765563 Eh    ::
         :: HB energy                 -0.000743071154 Eh    ::
         :: XB energy                  0.000000000000 Eh    ::
         :: bonded atm energy         -0.009074153215 Eh    ::
         :: external energy            0.000000000000 Eh    ::
         :: -> Gsolv                  -0.037983723465 Eh    ::
         ::    -> Gborn               -0.033468206813 Eh    ::
         ::    -> Gsasa                0.009715772539 Eh    ::
         ::    -> Ghb                 -0.014596228446 Eh    ::
         ::    -> Gshift               0.000364939255 Eh    ::
         :: add. restraining           0.000000000000 Eh    ::
         :: total charge              -0.000000000000 e     ::
         ::.................................................::
         :: atomisation energy         0.000000000000 Eh    ::
         :::::::::::::::::::::::::::::::::::::::::::::::::::::

      ----------------------------------------------------------- 
     |                   =====================                   |
     |                        A N C O P T                        |
     |                   =====================                   |
     |               Approximate Normal Coordinate               |
     |                Rational Function Optimizer                |
      ----------------------------------------------------------- 

          ...................................................
          :                      SETUP                      :
          :.................................................:
          :   optimization level         verytight          :
          :   max. optcycles                    10          :
          :   ANC micro-cycles                  10          :
          :   degrees of freedom                99          :
          :.................................................:
          :   RF solver                   davidson          :
          :   write xtbopt.log                true          :
          :   linear?                        false          :
          :   energy convergence         0.1000000E-06 Eh   :
          :   grad. convergence          0.2000000E-03 Eh/α :
          :   maxmium RF displ.          1.0000000          :
          :   Hlow (freq-cutoff)         0.1000000E-01      :
          :   Hmax (freq-cutoff)         5.0000000          :
          :   S6 in model hess.         20.0000000          :
          ...................................................

generating ANC from model Hessian ...
Using GFN-FF Lindh-Hessian
 Shifting diagonal of input Hessian by    0.0000000000000000     
 Lowest  eigenvalues of input Hessian
    0.000000    0.000000    0.000000    0.000000    0.000000    0.000000
    0.015721    0.020241    0.027972    0.031178    0.048552    0.056733
    0.063698    0.070704    0.086989    0.091416    0.098528    0.102943
 Highest eigenvalues
    3.338244    3.755738    3.862778    3.994982    4.159102    4.287960


........................................................................
.............................. CYCLE    1 ..............................
........................................................................
     iter. time                 ...        0 min,  0.001 sec
 * total energy  :    -6.2303004 Eh     change        0.0000000E+00 Eh
   gradient norm :     0.1764604 Eh/α   predicted     0.0000000E+00 (    NaN%)
   displ. norm   :     0.1284602 α      lambda       -0.1378488E-01
   maximum displ.:     0.0523829 α      in ANC's #13, #49, #22, ...

........................................................................
.............................. CYCLE    2 ..............................
........................................................................
     iter. time                 ...        0 min,  0.001 sec
 * total energy  :    -6.2397981 Eh     change       -0.9497725E-02 Eh
   gradient norm :     0.0642857 Eh/α   predicted    -0.7006187E-02 ( -26.23%)
   displ. norm   :     0.1005634 α      lambda       -0.4115271E-02
   maximum displ.:     0.0476170 α      in ANC's #49, #22, #13, ...

........................................................................
.............................. CYCLE    3 ..............................
........................................................................
     iter. time                 ...        0 min,  0.001 sec
 * total energy  :    -6.2421490 Eh     change       -0.2350954E-02 Eh
   gradient norm :     0.0173040 Eh/α   predicted    -0.2079005E-02 ( -11.57%)
   displ. norm   :     0.0361639 α      lambda       -0.4197632E-03
   maximum displ.:     0.0170034 α      in ANC's #33, #49, #3, ...

........................................................................
.............................. CYCLE    4 ..............................
........................................................................
     iter. time                 ...        0 min,  0.001 sec
 * total energy  :    -6.2424479 Eh     change       -0.2988436E-03 Eh
   gradient norm :     0.0104942 Eh/α   predicted    -0.2102262E-03 ( -29.65%)
   displ. norm   :     0.0355833 α      lambda       -0.2457986E-03
   maximum displ.:     0.0233259 α      in ANC's #33, #49, #35, ...

........................................................................
.............................. CYCLE    5 ..............................
........................................................................
     iter. time                 ...        0 min,  0.001 sec
 * total energy  :    -6.2426043 Eh     change       -0.1563855E-03 Eh
   gradient norm :     0.0056451 Eh/α   predicted    -0.1231689E-03 ( -21.24%)
   displ. norm   :     0.0244073 α      lambda       -0.7717437E-04
   maximum displ.:     0.0151438 α      in ANC's #33, #4, #11, ...

........................................................................
.............................. CYCLE    6 ..............................
........................................................................
     iter. time                 ...        0 min,  0.001 sec
 * total energy  :    -6.2426601 Eh     change       -0.5579210E-04 Eh
   gradient norm :     0.0048232 Eh/α   predicted    -0.3861322E-04 ( -30.79%)
   displ. norm   :     0.0254952 α      lambda       -0.5661910E-04
   maximum displ.:     0.0142355 α      in ANC's #33, #4, #11, ...

........................................................................
.............................. CYCLE    7 ..............................
........................................................................
     iter. time                 ...        0 min,  0.001 sec
 * total energy  :    -6.2426961 Eh     change       -0.3603128E-04 Eh
   gradient norm :     0.0034783 Eh/α   predicted    -0.2833956E-04 ( -21.35%)
   displ. norm   :     0.0106227 α      lambda       -0.1398475E-04
   maximum displ.:     0.0045205 α      in ANC's #33, #3, #31, ...

........................................................................
.............................. CYCLE    8 ..............................
........................................................................
     iter. time                 ...        0 min,  0.000 sec
 * total energy  :    -6.2427050 Eh     change       -0.8870191E-05 Eh
   gradient norm :     0.0016025 Eh/α   predicted    -0.6996792E-05 ( -21.12%)
   displ. norm   :     0.0077877 α      lambda       -0.3042415E-05
   maximum displ.:     0.0044644 α      in ANC's #1, #31, #3, ...

........................................................................
.............................. CYCLE    9 ..............................
........................................................................
     iter. time                 ...        0 min,  0.001 sec
 * total energy  :    -6.2427070 Eh     change       -0.1997098E-05 Eh
   gradient norm :     0.0007153 Eh/α   predicted    -0.1523603E-05 ( -23.71%)
   displ. norm   :     0.0027186 α      lambda       -0.4732730E-06
   maximum displ.:     0.0015658 α      in ANC's #1, #6, #12, ...

........................................................................
.............................. CYCLE   10 ..............................
........................................................................
     iter. time                 ...        0 min,  0.001 sec
 * total energy  :    -6.2427075 Eh     change       -0.5785106E-06 Eh
   gradient norm :     0.0004003 Eh/α   predicted    -0.2592592E-06 ( -55.19%)
   displ. norm   :     0.0078947 α      lambda       -0.6698752E-06
   maximum displ.:     0.0053605 α      in ANC's #1, #3, #2, ...

   *** FAILED TO CONVERGE GEOMETRY OPTIMIZATION IN 10 ITERATIONS ***


 ANCopt (total)                0 d,  0 h,  0 min,  0.008 sec
 optimizer setup                ...        0 min,  0.000 sec (  1.049%)
 model hessian                  ...        0 min,  0.000 sec (  3.027%)
 ANC generation                 ...        0 min,  0.001 sec ( 13.382%)
 coordinate transformation      ...        0 min,  0.000 sec (  0.429%)
 single point calculation       ...        0 min,  0.006 sec ( 71.519%)
 optimization log               ...        0 min,  0.000 sec (  5.081%)
 hessian update                 ...        0 min,  0.000 sec (  0.579%)
 rational function              ...        0 min,  0.000 sec (  2.909%)

================
 final structure:
================
ATOM      1  C   GLY A   9      -6.716 -13.478   3.170  1.00  0.00           C  
ATOM      2  O   GLY A   9      -7.094 -14.181   2.265  1.00  0.00           O  
ATOM      3  N   GLY A  10      -5.605 -12.700   3.114  1.00  0.00           N  
ATOM      4  CA  GLY A  10      -4.795 -12.700   1.934  1.00  0.00           C  
ATOM      5  C   GLY A  10      -4.785 -11.352   1.264  1.00  0.00           C  
ATOM      6  O   GLY A  10      -5.846 -10.778   1.130  1.00  0.00           O  
ATOM      7  H   GLY A  10      -5.440 -11.932   3.771  1.00  0.00           H  
ATOM      8  HA2 GLY A  10      -3.795 -13.042   2.201  1.00  0.00           H  
ATOM      9  HA3 GLY A  10      -5.223 -13.436   1.242  1.00  0.00           H  
ATOM     10  N   GLY A  11      -3.626 -10.768   0.784  1.00  0.00           N  
ATOM     11  CA  GLY A  11      -2.287 -11.350   0.783  1.00  0.00           C  
ATOM     12  C   GLY A  11      -1.729 -11.452  -0.602  1.00  0.00           C  
ATOM     13  O   GLY A  11      -2.120 -12.334  -1.336  1.00  0.00           O  
ATOM     14  H   GLY A  11      -3.705  -9.917   0.232  1.00  0.00           H  
ATOM     15  HA2 GLY A  11      -1.635 -10.744   1.421  1.00  0.00           H  
ATOM     16  HA3 GLY A  11      -2.303 -12.353   1.216  1.00  0.00           H  
ATOM     17  N   GLY A  12      -0.790 -10.528  -1.002  1.00  0.00           N  
ATOM     18  CA  GLY A  12      -0.374 -10.466  -2.384  1.00  0.00           C  
ATOM     19  C   GLY A  12      -0.806  -9.169  -3.012  1.00  0.00           C  
ATOM     20  O   GLY A  12      -1.898  -8.731  -2.713  1.00  0.00           O  
ATOM     21  H   GLY A  12      -0.636  -9.670  -0.472  1.00  0.00           H  
ATOM     22  HA2 GLY A  12       0.711 -10.598  -2.426  1.00  0.00           H  
ATOM     23  HA3 GLY A  12      -0.841 -11.305  -2.911  1.00  0.00           H  
ATOM     24  N   GLY A  13      -0.007  -8.490  -3.914  1.00  0.00           N  
ATOM     25  CA  GLY A  13       1.316  -8.897  -4.375  1.00  0.00           C  
ATOM     26  C   GLY A  13       1.521  -8.504  -5.816  1.00  0.00           C  
ATOM     27  O   GLY A  13       0.615  -8.622  -6.600  1.00  0.00           O  
ATOM     28  H   GLY A  13      -0.384  -7.677  -4.394  1.00  0.00           H  
ATOM     29  HA2 GLY A  13       2.072  -8.445  -3.731  1.00  0.00           H  
ATOM     30  HA3 GLY A  13       1.410  -9.985  -4.295  1.00  0.00           H  
ATOM     31  N   GLY A  14       2.759  -8.024  -6.234  1.00  0.00           N  
ATOM     32  CA  GLY A  14       3.026  -7.689  -7.556  1.00  0.00           C  
ATOM     33  H   GLY A  14       3.506  -7.869  -5.547  1.00  0.00           H  
ATOM     34  HA2 GLY A  14       3.893  -8.117  -7.989  1.00  0.00           H  
ATOM     35  HA3 GLY A  14       2.128  -7.842  -8.144  1.00  0.00           H  
END

 Bond Distances (Angstroems)
 ---------------------------
C1-O2=1.2061         C1-N3=1.3573         O2-C1=1.2061         N3-C1=1.3573         N3-C4=1.4313         N3-H7=1.0240         
C4-N3=1.4313         C4-C5=1.5053         C4-H8=1.0902         C4-H9=1.0972         C5-C4=1.5053         C5-O6=1.2140         
C5-N10=1.3843        O6-C5=1.2140         H7-N3=1.0240         H8-C4=1.0902         H9-C4=1.0972         N10-C5=1.3843        
N10-C11=1.4603       N10-H14=1.0172       C11-N10=1.4603       C11-C12=1.4972       C11-H15=1.0946       C11-H16=1.0919       
C12-C11=1.4972       C12-O13=1.2123       C12-N17=1.3763       O13-C12=1.2123       H14-N10=1.0172       H15-C11=1.0946       
H16-C11=1.0919       N17-C12=1.3763       N17-C18=1.4445       N17-H21=1.0208       C18-N17=1.4445       C18-C19=1.5043       
C18-H22=1.0932       C18-H23=1.0957       C19-C18=1.5043       C19-O20=1.2137       C19-N24=1.3830       O20-C19=1.2137       
H21-N17=1.0208       H22-C18=1.0932       H23-C18=1.0957       N24-C19=1.3830       N24-C25=1.4587       N24-H28=1.0168       
C25-N24=1.4587       C25-C26=1.5085       C25-H29=1.0911       C25-H30=1.0945       C26-C25=1.5085       C26-O27=1.2045       
C26-N31=1.3917       O27-C26=1.2045       H28-N24=1.0168       H29-C25=1.0911       H30-C25=1.0945       N31-C26=1.3917       
N31-C32=1.3892       N31-H33=1.0269       C32-N31=1.3892       C32-H34=1.0595       C32-H35=1.0837       H33-N31=1.0269       
H34-C32=1.0595       H35-C32=1.0837       
 C  H  Rav=1.0892 sigma=0.0105  Rmin=1.0595  Rmax=1.0972    10
 C  C  Rav=1.5038 sigma=0.0041  Rmin=1.4972  Rmax=1.5085     4
 N  H  Rav=1.0211 sigma=0.0039  Rmin=1.0168  Rmax=1.0269     5
 N  C  Rav=1.4077 sigma=0.0354  Rmin=1.3573  Rmax=1.4603    10
 O  C  Rav=1.2101 sigma=0.0040  Rmin=1.2045  Rmax=1.2140     5

 selected bond angles (degree)
 --------------------
N3-C1-O2=124.02                C4-N3-C1=119.80                H7-N3-C1=122.36                H7-N3-C4=115.98                
C5-C4-N3=111.76                H8-C4-N3=108.48                H8-C4-C5=112.58                H9-C4-N3=107.41                
H9-C4-C5=108.81                H9-C4-H8=107.60                O6-C5-C4=117.86                N10-C5-C4=122.55               
N10-C5-O6=119.58               C11-N10-C5=126.86              H14-N10-C5=118.42              H14-N10-C11=113.88             

 selected dihedral angles (degree)
 ---------------------------------
C4-N3-C1-O2=359.11            H7-N3-C1-O2=162.93            C5-C4-N3-C1=115.95            C5-C4-N3-H7=311.13            
H8-C4-N3-C1=240.65            H8-C4-N3-H7= 75.83            H9-C4-N3-C1=356.68            H9-C4-N3-H7=191.85            
O6-C5-C4-N3=314.63            O6-C5-C4-H8=192.25            O6-C5-C4-H9= 73.07            N10-C5-C4-N3=135.72           
N10-C5-C4-H8= 13.34           N10-C5-C4-H9=254.16           C11-N10-C5-C4=  3.01          C11-N10-C5-O6=184.13          
H14-N10-C5-C4=171.86          H14-N10-C5-O6=352.97          
           -------------------------------------------------
          |                Final Singlepoint                |
           -------------------------------------------------
         :::::::::::::::::::::::::::::::::::::::::::::::::::::
         ::                     SUMMARY                     ::
         :::::::::::::::::::::::::::::::::::::::::::::::::::::
         :: total energy              -6.242708314536 Eh    ::
         :: total w/o Gsolv           -6.204841672346 Eh    ::
         :: total w/o Gsasa/hb        -6.238314453238 Eh    ::
         :: gradient norm              0.000390232896 Eh/a0 ::
         ::.................................................::
         :: bond energy               -6.302117161567 Eh    ::
         :: angle energy               0.026038426788 Eh    ::
         :: torsion energy             0.014626109302 Eh    ::
         :: repulsion energy           0.392083031708 Eh    ::
         :: electrostat energy        -0.308603840818 Eh    ::
         :: dispersion energy         -0.022739434240 Eh    ::
         :: HB energy                 -0.000735960194 Eh    ::
         :: XB energy                  0.000000000000 Eh    ::
         :: bonded atm energy         -0.009177894130 Eh    ::
         :: external energy            0.000000000000 Eh    ::
         :: -> Gsolv                  -0.037866642189 Eh    ::
         ::    -> Gborn               -0.033472780892 Eh    ::
         ::    -> Gsasa                0.009741042558 Eh    ::
         ::    -> Ghb                 -0.014499843111 Eh    ::
         ::    -> Gshift               0.000364939255 Eh    ::
         :: add. restraining           0.005785050805 Eh    ::
         :: total charge               0.000000000000 e     ::
         ::.................................................::
         :: atomisation energy         0.000000000000 Eh    ::
         :::::::::::::::::::::::::::::::::::::::::::::::::::::

           -------------------------------------------------
          |                Property Printout                |
           -------------------------------------------------
           -------------------------------------------------
          |                Geometry Summary                 |
           -------------------------------------------------

      molecular mass/u    :      285.2570109
   center of mass at/Å    :       -1.9677908     -10.5089411      -1.5670819
  moments of inertia/u·Å² :        0.3568154E+03   0.6554688E+04   0.6608922E+04
rotational constants/cm⁻¹ :        0.4724469E-01   0.2571844E-02   0.2550738E-02

 * 29 selected distances

     #   Z          #   Z                                           value/Å
     1   6  C       3   7  N                                      1.3573284
     3   7  N       4   6  C                                      1.4313195
     5   6  C       6   8  O                                      1.2140024
     3   7  N       7   1  H                                      1.0239673
     4   6  C       8   1  H                                      1.0901999
     4   6  C       9   1  H                                      1.0972056
     5   6  C      10   7  N                                      1.3843474
    10   7  N      11   6  C                                      1.4602542 (max)
    12   6  C      13   8  O                                      1.2123427
    10   7  N      14   1  H                                      1.0171582
    11   6  C      15   1  H                                      1.0945766
    11   6  C      16   1  H                                      1.0918758
    12   6  C      17   7  N                                      1.3762502
    17   7  N      18   6  C                                      1.4445262
    19   6  C      20   8  O                                      1.2137050
    17   7  N      21   1  H                                      1.0208261
    18   6  C      22   1  H                                      1.0932215
    18   6  C      23   1  H                                      1.0957108
    19   6  C      24   7  N                                      1.3829650
    24   7  N      25   6  C                                      1.4587463
    26   6  C      27   8  O                                      1.2044814
    24   7  N      28   1  H                                      1.0167981 (min)
    25   6  C      29   1  H                                      1.0911465
    25   6  C      30   1  H                                      1.0945456
    26   6  C      31   7  N                                      1.3916988
    31   7  N      32   6  C                                      1.3892267
    31   7  N      33   1  H                                      1.0269009
    32   6  C      34   1  H                                      1.0595154
    32   6  C      35   1  H                                      1.0837424

 * 4 distinct bonds (by element types)

   Z      Z             #   av. dist./Å        max./Å        min./Å
   1 H    6 C          10     1.0891740     1.0972056     1.0595154
   1 H    7 N           5     1.0211301     1.0269009     1.0167981
   6 C    7 N          10     1.4076663     1.4602542     1.3573284
   6 C    8 O           4     1.2111329     1.2140024     1.2044814


optimized geometry written to: xtbopt.pdb


           -------------------------------------------------
          | TOTAL ENERGY               -6.242708314536 Eh   |
          | GRADIENT NORM               0.000390232896 Eh/α |
           -------------------------------------------------
########################################################################
[WARNING] Runtime exception occurred
-1- gfnff_setup: Could not read topology file.
########################################################################

------------------------------------------------------------------------
 unit  open   action     filename
   10 false : read       xtb_settings.inp
   10 false : read       substructure_99.pdb
   10 false : read       xtb_settings.inp
   10 false : written    gfnff_topo
   10 false : written    gfnff_adjacency
   10 false : written    gfnff_charges
   10 false : deleted    .xtboptok
   10 false : replaced   xtbopt.log
   11 false : created    .xtboptok
   11 false : replaced   gfnff_charges
   10 false : replaced   xtbopt.pdb

------------------------------------------------------------------------
 * finished run on 2025/05/27 at 09:38:03.842     
------------------------------------------------------------------------
 total:
 * wall-time:     0 d,  0 h,  0 min,  0.013 sec
 *  cpu-time:     0 d,  0 h,  0 min,  0.013 sec
 * ratio c/w:     0.995 speedup
 SCF:
 * wall-time:     0 d,  0 h,  0 min,  0.001 sec
 *  cpu-time:     0 d,  0 h,  0 min,  0.001 sec
 * ratio c/w:     0.999 speedup
 ANC optimizer:
 * wall-time:     0 d,  0 h,  0 min,  0.009 sec
 *  cpu-time:     0 d,  0 h,  0 min,  0.009 sec
 * ratio c/w:     0.994 speedup

