      -----------------------------------------------------------      
     |                   =====================                   |     
     |                           x T B                           |     
     |                   =====================                   |     
     |                         S. Grimme                         |     
     |          Mulliken Center for Theoretical Chemistry        |     
     |                    University of Bonn                     |     
      -----------------------------------------------------------      

   * xtb version 6.6.1 (8d0f1dd) compiled by 'conda@1efc2f54142f' on 2023-08-01

   xtb is free software: you can redistribute it and/or modify it under
   the terms of the GNU Lesser General Public License as published by
   the Free Software Foundation, either version 3 of the License, or
   (at your option) any later version.
   
   xtb is distributed in the hope that it will be useful,
   but WITHOUT ANY WARRANTY; without even the implied warranty of
   MERCHANTABILITY or FITNESS FOR A PARTICULAR PURPOSE.  See the
   GNU Lesser General Public License for more details.
   
   Cite this work as:
   * C. Bannwarth, E. Caldeweyher, S. Ehlert, A. Hansen, P. Pracht,
     J. Seibert, S. Spicher, S. Grimme, WIREs Comput. Mol. Sci., 2020, 11,
     e01493. DOI: 10.1002/wcms.1493
   
   for GFN2-xTB:
   * C. Bannwarth, S. Ehlert and S. Grimme., J. Chem. Theory Comput., 2019,
     15, 1652-1671. DOI: 10.1021/acs.jctc.8b01176
   for GFN1-xTB:
   * S. Grimme, C. Bannwarth, P. Shushkov, J. Chem. Theory Comput., 2017,
     13, 1989-2009. DOI: 10.1021/acs.jctc.7b00118
   for GFN0-xTB:
   * P. Pracht, E. Caldeweyher, S. Ehlert, S. Grimme, ChemRxiv, 2019, preprint.
     DOI: 10.26434/chemrxiv.8326202.v1
   for GFN-FF:
   * S. Spicher and S. Grimme, Angew. Chem. Int. Ed., 2020, 59, 15665-15673.
     DOI: 10.1002/anie.202004239
   
   for ALPB and GBSA implicit solvation:
   * S. Ehlert, M. Stahn, S. Spicher, S. Grimme, J. Chem. Theory Comput.,
     2021, 17, 4250-4261. DOI: 10.1021/acs.jctc.1c00471
   
   for DFT-D4:
   * E. Caldeweyher, C. Bannwarth and S. Grimme, J. Chem. Phys., 2017,
     147, 034112. DOI: 10.1063/1.4993215
   * E. Caldeweyher, S. Ehlert, A. Hansen, H. Neugebauer, S. Spicher,
     C. Bannwarth and S. Grimme, J. Chem. Phys., 2019, 150, 154122.
     DOI: 10.1063/1.5090222
   * E. Caldeweyher, J.-M. Mewes, S. Ehlert and S. Grimme, Phys. Chem. Chem. Phys.
     2020, 22, 8499-8512. DOI: 10.1039/D0CP00502A
   
   for sTDA-xTB:
   * S. Grimme and C. Bannwarth, J. Chem. Phys., 2016, 145, 054103.
     DOI: 10.1063/1.4959605
   
   in the mass-spec context:
   * V. Asgeirsson, C. Bauer and S. Grimme, Chem. Sci., 2017, 8, 4879.
     DOI: 10.1039/c7sc00601b
   * J. Koopman and S. Grimme, ACS Omega 2019, 4, 12, 15120-15133.
     DOI: 10.1021/acsomega.9b02011
   
   for metadynamics refer to:
   * S. Grimme, J. Chem. Theory Comput., 2019, 155, 2847-2862
     DOI: 10.1021/acs.jctc.9b00143
   
   for SPH calculations refer to:
   * S. Spicher and S. Grimme, J. Chem. Theory Comput., 2021, 17, 1701-1714
     DOI: 10.1021/acs.jctc.0c01306
   
   with help from (in alphabetical order)
   P. Atkinson, C. Bannwarth, F. Bohle, G. Brandenburg, E. Caldeweyher
   M. Checinski, S. Dohm, S. Ehlert, S. Ehrlich, I. Gerasimov, C. Hölzer
   A. Katbashev, J. Koopman, C. Lavigne, S. Lehtola, F. März, M. Müller,
   F. Musil, H. Neugebauer, J. Pisarek, C. Plett, P. Pracht, F. Pultar,
   J. Seibert, P. Shushkov, S. Spicher, M. Stahn, M. Steiner, T. Strunk,
   J. Stückrath, T. Rose, and J. Unsleber
   
 * started run on 2025/05/27 at 09:37:34.707     

           -------------------------------------------------
          |                Calculation Setup                |
           -------------------------------------------------

          program call               : xtb substructure_9.pdb --gfnff --input xtb_settings.inp --opt vtight --alpb water --verbose
          coordinate file            : substructure_9.pdb
          xtbhome directory          : /home/dargen3
          path for xtb               : /home/dargen3
          xcontrol input file        : xtb_settings.inp
          omp threads                :                     1

$$$$$$$$$$$$$$$$$$$$$$$$$$$$$$$$$$$$$$$$$$$$$$$$$$$$$$$$$$$$$$$$$$$$$$$$
 CONSTRAINTS & SCANS: DEBUG SECTION
$$$$$$$$$$$$$$$$$$$$$$$$$$$$$$$$$$$$$$$$$$$$$$$$$$$$$$$$$$$$$$$$$$$$$$$$
   ID    Z sym.   atoms
    1    6  C     1, 4, 5, 11, 12, 18, 19, 25, 26, 32
    2    8  O     2, 6, 13, 20, 27
    3    7  N     3, 10, 17, 24, 31
    4    1  H     7-9, 14-16, 21-23, 28-30, 33-35
> constrain
-> atoms: 1, 2, 3, 4, 5, 6, 7, 8, 9, 10, 11, 12, 13, 14, 15, 16, 18, 24, 25, 26, 27, 28, 29, 30, 31, 32, 33, 34, 35
--> 1: 1
--> 2: 2
--> 3: 3
--> 4: 4
--> 5: 5
--> 6: 6
--> 7: 7
--> 8: 8
--> 9: 9
--> 10: 10
--> 11: 11
--> 12: 12
--> 13: 13
--> 14: 14
--> 15: 15
--> 16: 16
--> 17: 18
--> 18: 24
--> 19: 25
--> 20: 26
--> 21: 27
--> 22: 28
--> 23: 29
--> 24: 30
--> 25: 31
--> 26: 32
--> 27: 33
--> 28: 34
--> 29: 35
-> force constant=1.0
$$$$$$$$$$$$$$$$$$$$$$$$$$$$$$$$$$$$$$$$$$$$$$$$$$$$$$$$$$$$$$$$$$$$$$$$
           -------------------------------------------------
          |                   Constraints                   |
           -------------------------------------------------

 * 29 constrained atom positions
   positions refering to input geometry

     #   Z                                   position/Å      displ./Å
     1   6 C     -6.8190006   -13.3060012     3.1360003     0.0000000
     2   8 O     -7.3990007   -13.6320013     2.1220002     0.0000000
     3   7 N     -5.5180005   -12.8530012     3.1520003     0.0000000
     4   6 C     -4.7940004   -12.6990012     1.9410002     0.0000000
     5   6 C     -4.7230004   -11.2520010     1.5150001     0.0000000
     6   8 O     -5.7310005   -10.5810010     1.5970001     0.0000000
     7   1 H     -5.1130005   -12.3900011     3.9690004     0.0000000
     8   1 H     -3.8180004   -13.1560012     2.0370002     0.0000000
     9   1 H     -5.3430005   -13.2560012     1.1560001     0.0000000
    10   7 N     -3.5560003   -10.6780010     1.0200001     0.0000000
    11   6 C     -2.2890002   -11.3470011     0.7820001     0.0000000
    12   6 C     -1.8990002   -11.3340011    -0.6640001     0.0000000
    13   8 O     -2.5940002   -11.8980011    -1.4790001     0.0000000
    14   1 H     -3.6050003    -9.7410009     0.6260001     0.0000000
    15   1 H     -1.5150001   -10.8810010     1.3970001     0.0000000
    16   1 H     -2.3400002   -12.3970012     1.1070001     0.0000000
    18   6 C     -0.3730000   -10.4770010    -2.3880002     0.0000000
    24   7 N      0.0950000    -8.3980008    -3.7580003     0.0000000
    25   6 C      1.3240001    -8.8870008    -4.3620004     0.0000000
    26   6 C      1.4850001    -8.3970008    -5.7830005     0.0000000
    27   8 O      0.5060000    -8.2070008    -6.4710006     0.0000000
    28   1 H     -0.2060000    -7.4930007    -4.1060004     0.0000000
    29   1 H      2.1700002    -8.6150008    -3.7550003     0.0000000
    30   1 H      1.2800001    -9.9940009    -4.4080004     0.0000000
    31   7 N      2.7620003    -8.1960008    -6.2620006     0.0000000
    32   6 C      3.0050003    -7.6070007    -7.5660007     0.0000000
    33   1 H      3.5680003    -8.2040008    -5.6360005     0.0000000
    34   1 H      3.8260004    -8.1060008    -8.0640007     0.0000000
    35   1 H      2.1010002    -7.7740007    -8.1670008     0.0000000

     applying 406 atom pairwise harmonic potentials
       applied force constant per pair:     0.0357143
     effective force constant per atom:     1.0000000
         constraining energy/grad norm:     0.0000000     0.0000000

     total constraint energy/grad norm:     0.0000000     0.0000000

          charge from pdb residues: 0

          entering GFN-FF setup routine... 35

          ==================== Thresholds ====================
          CN  :   150.00000
          rep :   500.00000
          disp:  2500.00000
          HB1 :   250.00000
          HB2 :   450.00000

          Pauling EN used:
          Z : 1  EN :  2.20
          Z : 6  EN :  2.55
          Z : 7  EN :  3.04
          Z : 8  EN :  3.44
          electric field strengths (au): 0.000

           ------------------------------------------------- 
          |           Force Field Initialization            |
           ------------------------------------------------- 

          distances ...
          ----------------------------------------
          generating topology and atomic info file ...
          pair mat ...
          computing topology distances matrix with Floyd-Warshall algo ...
          making topology EEQ charges ...
          #fragments for EEQ constrain from pdb file: 6
          ----------------------------------------
          generating topology and atomic info file ...
          pair mat ...
          computing topology distances matrix with Floyd-Warshall algo ...
          making topology EEQ charges ...
          #fragments for EEQ constrain from pdb file: 6
          rings ...
          # BATM   270
          # H in HB   15
          doing iterative Hueckel for 5 subsystem(s) ...
          iterative Hueckel run to get P ...
Hueckel system :  1 charge :   0 ndim/Nel :    3    3   eps(HOMO/LUMO)   -0.953512   -0.953512
Hueckel system :  2 charge :   0 ndim/Nel :    3    4   eps(HOMO/LUMO)   -0.911362   -0.911362
Hueckel system :  3 charge :   0 ndim/Nel :    3    4   eps(HOMO/LUMO)   -0.911922   -0.911922
Hueckel system :  4 charge :   0 ndim/Nel :    3    4   eps(HOMO/LUMO)   -0.910012   -0.910012
Hueckel system :  5 charge :   0 ndim/Nel :    4    5   eps(HOMO/LUMO)    1.305315    1.305315
WARNING: probably wrong pi occupation for system 5. Second attempt with Nel=Nel-1!
 at,nb,topo%hyb,Npiel:          26  C             3           2           1
 at,nb,topo%hyb,Npiel:          27  O             1           2           1
 at,nb,topo%hyb,Npiel:          31  N             3           3           2
 at,nb,topo%hyb,Npiel:          32  C             3           2           1

          eigenvalues
 #    :           1          2          3          4
 occ. :        2.000      1.987      0.013      0.000
 eps  :        -4.349     -2.183      1.305      3.389
Hueckel system :  5 charge :   0 ndim/Nel :    4    4   eps(HOMO/LUMO)   -2.182828    1.305315

  atom   neighbors  erfCN metchar sp-hybrid imet pi  qest     coordinates
    1   C      2    1.93   0.00        -2    0    1   0.120  -12.886042  -25.144696    5.926181
    2   O      1    0.98   0.00         2    0    1  -0.120  -13.982084  -25.760747    4.009999
    3   N      3    2.79   0.00        -3    0    1  -0.166  -10.427509  -24.288650    5.956417
    4   C      4    3.50   0.00         3    0    0   0.005   -9.059347  -23.997632    3.667958
    5   C      3    2.79   0.00         2    0    1   0.174   -8.925176  -21.263198    2.862935
    6   O      1    0.98   0.00         2    0    1  -0.352  -10.830020  -19.995192    3.017893
    7   H      1    0.98   0.00         0    0    0   0.153   -9.662170  -23.413707    7.500323
    8   H      1    0.97   0.00         0    0    0   0.093   -7.214974  -24.861237    3.849372
    9   H      1    0.97   0.01         0    0    0   0.093  -10.096807  -25.050210    2.184523
   10   N      3    2.79   0.00        -3    0    1  -0.168   -6.719866  -20.178496    1.927521
   11   C      4    3.49   0.00         3    0    0   0.006   -4.325583  -21.442722    1.477766
   12   C      3    2.80   0.00         2    0    1   0.175   -3.588590  -21.418156   -1.254778
   13   O      1    0.98   0.00         2    0    1  -0.352   -4.901950  -22.483961   -2.794905
   14   H      1    0.98   0.00         0    0    0   0.154   -6.812463  -18.407822    1.182969
   15   H      1    0.97   0.00         0    0    0   0.092   -2.862935  -20.562110    2.639947
   16   H      1    0.97   0.01         0    0    0   0.092   -4.421959  -23.426935    2.091927
   17   N      3    2.79   0.00        -3    0    1  -0.167   -1.383280  -20.186054   -1.899175
   18   C      4    3.49   0.00         3    0    0   0.005   -0.704868  -19.798661   -4.512666
   19   C      3    2.79   0.00         2    0    1   0.178   -1.302021  -17.128478   -5.325248
   20   O      1    0.98   0.00         2    0    1  -0.353   -3.150173  -16.106136   -4.431408
   21   H      1    0.98   0.00         0    0    0   0.151   -0.502667  -18.995527   -0.657625
   22   H      1    0.97   0.00         0    0    0   0.093    1.288793  -20.238967   -4.765889
   23   H      1    0.97   0.00         0    0    0   0.093   -1.817917  -21.119579   -5.652171
   24   N      3    2.79   0.00        -3    0    1  -0.170    0.179524  -15.869920   -7.101591
   25   C      4    3.49   0.00         3    0    0   0.006    2.501997  -16.793996   -8.242985
   26   C      3    2.79   0.00         2    0    1   0.195    2.806243  -15.868030  -10.928286
   27   O      1    0.98   0.00         2    0    1  -0.357    0.956201  -15.508982  -12.228418
   28   H      1    0.98   0.00         0    0    0   0.147   -0.389284  -14.159718   -7.759215
   29   H      1    0.97   0.00         0    0    0   0.090    4.100706  -16.279991   -7.095922
   30   H      1    0.97   0.01         0    0    0   0.090    2.418849  -18.885923   -8.329913
   31   N      3    2.79   0.00         3    0    1  -0.226    5.219424  -15.488195  -11.833465
   32   C      3    2.78   0.00         2    0    1  -0.008    5.678627  -14.375147  -14.297668
   33   H      1    0.98   0.00         0    0    0   0.123    6.742543  -15.503313  -10.650496
   34   H      1    0.97   0.00         0    0    0   0.055    7.230092  -15.318120  -15.238751
   35   H      1    0.97   0.01         0    0    0   0.055    3.970315  -14.690731  -15.433393

molecular fragment  # atoms  topo charge
       1             2            -0.000
       2             7            -0.000
       3             7            -0.000
       4             7             0.000
       5             7             0.000
       6             5            -0.000


          #atoms :   35
          #bonds :   34

 bond atoms        type  in ring    R      R0    piBO    fqq  kbond(tot)  alp
 O  C     2    1      2    0     1.213   0.996   0.799   1.047  -0.252   0.584
 N  C     3    1      2    0     1.378   1.215   0.504   1.047  -0.235   0.524
 C  N     4    3      1    0     1.419   1.326 -99.000   1.033  -0.151   0.496
 C  C     5    4      1    0     1.510   1.332 -99.000   1.013  -0.162   0.475
 O  C     6    5      2    0     1.214   1.031   0.856   1.047  -0.262   0.584
 H  N     7    3      1    0     1.023   0.890 -99.000   1.047  -0.176   0.551
 H  C     8    4      1    0     1.082   0.977 -99.000   1.018  -0.164   0.482
 H  C     9    4      1    0     1.108   0.976 -99.000   1.018  -0.164   0.482
 N  C    10    5      2    0     1.392   1.263   0.503   1.047  -0.234   0.524
 C  N    11   10      1    0     1.452   1.326 -99.000   1.036  -0.151   0.496
 C  C    12   11      1    0     1.498   1.332 -99.000   1.011  -0.162   0.475
 O  C    13   12      2    0     1.210   1.031   0.856   1.047  -0.262   0.584
 H  N    14   10      1    0     1.018   0.890 -99.000   1.047  -0.176   0.551
 H  C    15   11      1    0     1.093   0.976 -99.000   1.016  -0.164   0.482
 H  C    16   11      1    0     1.100   0.976 -99.000   1.016  -0.164   0.482
 N  C    17   12      2    0     1.380   1.263   0.503   1.047  -0.234   0.524
 C  N    18   17      1    0     1.443   1.326 -99.000   1.033  -0.151   0.496
 C  C    19   18      1    0     1.510   1.332 -99.000   1.014  -0.162   0.475
 O  C    20   19      2    0     1.214   1.031   0.856   1.047  -0.262   0.584
 H  N    21   17      1    0     1.023   0.890 -99.000   1.047  -0.176   0.551
 H  C    22   18      1    0     1.089   0.977 -99.000   1.018  -0.164   0.482
 H  C    23   18      1    0     1.095   0.976 -99.000   1.018  -0.164   0.482
 N  C    24   19      2    0     1.393   1.263   0.504   1.047  -0.234   0.524
 C  N    25   24      1    0     1.454   1.325 -99.000   1.034  -0.151   0.496
 C  C    26   25      1    0     1.512   1.332 -99.000   1.011  -0.162   0.475
 O  C    27   26      2    0     1.212   1.018   0.930   1.047  -0.274   0.584
 H  N    28   24      1    0     1.015   0.890 -99.000   1.047  -0.176   0.551
 H  C    29   25      1    0     1.076   0.976 -99.000   1.018  -0.164   0.482
 H  C    30   25      1    0     1.109   0.976 -99.000   1.018  -0.164   0.482
 N  C    31   26      2    0     1.379   1.291   0.346   1.047  -0.203   0.524
 C  N    32   31      2    0     1.451   1.190   0.906   1.006  -0.302   0.524
 H  N    33   31      1    0     1.021   0.890 -99.000   1.047  -0.176   0.551
 H  C    34   32      1    0     1.082   0.950 -99.000   1.029  -0.179   0.490
 H  C    35   32      1    0     1.098   0.950 -99.000   1.029  -0.179   0.490
          #angl  :   55

 angle atoms        phi0    phi      FC  pi rings
    1    3    2   145.000 123.347   0.082 F   0
    3    4    1   115.000 120.496   0.411 F   0
    3    7    1   115.000 122.148   0.335 F   0
    3    7    4   104.000 115.499   0.182 F   0
    4    5    3   109.500 111.633   0.307 F   0
    4    8    3   109.500 109.793   0.253 F   0
    4    8    5   109.500 112.790   0.251 F   0
    4    9    3   109.500 107.288   0.253 F   0
    4    9    5   109.500 107.765   0.251 F   0
    4    9    8   108.600 107.305   0.209 F   0
    5    6    4   120.000 118.142   0.178 F   0
    5   10    4   120.000 122.347   0.243 F   0
    5   10    6   120.000 119.505   0.176 F   0
   10   11    5   115.000 126.861   0.409 F   0
   10   14    5   115.000 118.499   0.333 F   0
   10   14   11   104.000 113.745   0.182 F   0
   11   12   10   109.500 112.418   0.307 F   0
   11   15   10   109.500 109.219   0.253 F   0
   11   15   12   109.500 110.804   0.252 F   0
   11   16   10   109.500 110.531   0.253 F   0
   11   16   12   109.500 107.789   0.252 F   0
   11   16   15   108.600 105.873   0.209 F   0
   12   13   11   120.000 119.767   0.178 F   0
   12   17   11   120.000 117.581   0.243 F   0
   12   17   13   120.000 122.646   0.176 F   0
   17   18   12   115.000 120.952   0.409 F   0
   17   21   12   115.000 121.187   0.333 F   0
   17   21   18   104.000 114.503   0.182 F   0
   18   19   17   109.500 110.707   0.307 F   0
   18   22   17   109.500 109.180   0.253 F   0
   18   22   19   109.500 111.587   0.251 F   0
   18   23   17   109.500 107.648   0.253 F   0
   18   23   19   109.500 109.139   0.251 F   0
   18   23   22   108.600 108.472   0.209 F   0
   19   20   18   120.000 118.337   0.178 F   0
   19   24   18   120.000 121.430   0.242 F   0
   19   24   20   120.000 120.214   0.176 F   0
   24   25   19   115.000 126.513   0.409 F   0
   24   28   19   115.000 119.371   0.333 F   0
   24   28   25   104.000 114.078   0.182 F   0
   25   26   24   109.500 111.806   0.307 F   0
   25   29   24   109.500 110.191   0.253 F   0
   25   29   26   109.500 111.379   0.251 F   0
   25   30   24   109.500 108.629   0.253 F   0
   25   30   26   109.500 106.788   0.251 F   0
   25   30   29   108.600 107.874   0.209 F   0
   26   27   25   120.000 119.905   0.177 F   0
   26   31   25   120.000 118.198   0.241 F   0
   26   31   27   120.000 121.892   0.174 F   0
   31   32   26   113.000 121.765   0.042 F   0
   31   33   26   113.000 121.150   0.211 F   0
   31   33   32   113.000 114.965   0.105 F   0
   32   34   31   120.000 110.693   0.204 F   0
   32   35   31   120.000 106.986   0.204 F   0
   32   35   34   120.000 107.609   0.167 F   0
 torsion atoms        nrot   rings    phi0    phi      FC
    3    1    4    2   2      0     180.000   2.296   0.765
    3    1    7    2   2      0     180.000 166.081   1.135
    4    3    5    1   3      0     180.000 102.189   0.024
    4    3    5    7   3      0     180.000  62.626   0.032
    4    3    8    1   3      0     180.000 131.966   0.034
    4    3    8    7   3      0     180.000  63.219   0.045
    4    3    9    1   3      0     180.000  15.664   0.034
    4    3    9    7   3      0     180.000 179.521   0.045
    5    4    6    3   3      0     180.000  43.436   0.066
    5    4    6    8   3      0     180.000 167.613   0.115
    5    4    6    9   3      0     180.000  74.130   0.115
    5    4   10    3   3      0     180.000 137.481   0.041
    5    4   10    8   3      0     180.000  13.304   0.072
    5    4   10    9   3      0     180.000 104.953   0.072
   10    5   11    4   2      0     180.000   2.878   0.615
   10    5   11    6   2      0     180.000 176.194   0.833
   10    5   14    4   2      0     180.000 171.324   0.912
   10    5   14    6   2      0     180.000   7.747   1.236
   11   10   12    5   3      0     180.000 117.073   0.022
   11   10   12   14   3      0     180.000  51.840   0.032
   11   10   15    5   3      0     180.000 119.512   0.032
   11   10   15   14   3      0     180.000  71.575   0.045
   11   10   16    5   3      0     180.000   3.418   0.032
   11   10   16   14   3      0     180.000 172.331   0.045
   12   11   13   10   3      0     180.000  62.925   0.066
   12   11   13   15   3      0     180.000 174.550   0.115
   12   11   13   16   3      0     180.000  59.135   0.115
   12   11   17   10   3      0     180.000 117.960   0.041
   12   11   17   15   3      0     180.000   4.566   0.072
   12   11   17   16   3      0     180.000 119.981   0.072
   17   12   18   11   2      0     180.000 172.078   0.614
   17   12   18   13   2      0     180.000   8.834   0.832
   17   12   21   11   2      0     180.000  13.903   0.911
   17   12   21   13   2      0     180.000 167.009   1.235
   18   17   19   12   3      0     180.000 101.043   0.022
   18   17   19   21   3      0     180.000  58.499   0.032
   18   17   22   12   3      0     180.000 135.732   0.032
   18   17   22   21   3      0     180.000  64.727   0.045
   18   17   23   12   3      0     180.000  18.171   0.032
   18   17   23   21   3      0     180.000 177.713   0.045
   19   18   20   17   3      0     180.000  34.518   0.066
   19   18   20   22   3      0     180.000 156.340   0.115
   19   18   20   23   3      0     180.000  83.793   0.115
   19   18   24   17   3      0     180.000 147.044   0.041
   19   18   24   22   3      0     180.000  25.222   0.072
   19   18   24   23   3      0     180.000  94.645   0.072
   24   19   25   18   2      0     180.000   4.758   0.620
   24   19   25   20   2      0     180.000 176.833   0.840
   24   19   28   18   2      0     180.000 172.826   0.920
   24   19   28   20   2      0     180.000   5.582   1.247
   25   24   26   19   3      0     180.000 147.293   0.022
   25   24   26   28   3      0     180.000  30.401   0.032
   25   24   29   19   3      0     180.000  88.271   0.032
   25   24   29   28   3      0     180.000  94.035   0.045
   25   24   30   19   3      0     180.000  29.702   0.032
   25   24   30   28   3      0     180.000 147.992   0.045
   26   25   27   24   3      0     180.000  31.664   0.066
   26   25   27   29   3      0     180.000 155.433   0.115
   26   25   27   30   3      0     180.000  87.026   0.115
   26   25   31   24   3      0     180.000 149.176   0.041
   26   25   31   29   3      0     180.000  25.407   0.072
   26   25   31   30   3      0     180.000  92.134   0.072
   31   26   32   25   2      0     180.000 173.991   0.343
   31   26   32   27   2      0     180.000   6.866   0.465
   31   26   33   25   2      0     180.000  11.379   0.489
   31   26   33   27   2      0     180.000 169.478   0.663
   32   31   34   26   2      0     180.000 140.013   1.385
   32   31   34   33   2      0     180.000  56.374   1.974
   32   31   35   26   2      0     180.000  23.044   1.385
   32   31   35   33   2      0     180.000 173.343   1.974
 out-of-plane atoms          phi0    phi      FC
    3    7    1    4          0.000  13.923   0.133
    5    6   10    4          0.000  -0.784  23.920
   10   14    5   11          0.000   9.222   0.125
   12   13   17   11          0.000  -0.808  23.974
   17   21   12   18          0.000  18.593   0.130
   19   20   24   18          0.000  -1.358  24.122
   24   28   19   25          0.000   1.942   0.116
   26   27   31   25          0.000  -0.756  28.543
   31   33   26   32          0.000  14.719  -0.052
   32   34   35   31          0.000  56.781   0.552
          #tors  :   80
          #nmol  :   6
          #optfrag :   6

 GFN-FF setup done.

           ------------------------------------------------- 
          |                   G F N - F F                   |
          |          A general generic force-field          |
          |                  Version 1.0.3                  | 
           ------------------------------------------------- 
      * Solvation model:               ALPB
        Solvent                        water
        Parameter file                 internal GFN-FF/ALPB
        Dielectric constant                8.0200E+01
        Reference state                gsolv [1 M gas/solution]
        Free energy shift                  3.6494E-04 Eh       2.2900E-01 kcal/mol
        Temperature                        2.9815E+02 K
        Density                            1.0000E+00 kg/L
        Solvent mass                       1.8000E+01 g/mol
        Interaction kernel             P16
        Born radius scaling (c1)           1.5056E+00
        Born radii integrator          GBOBC
        Born offset                        0.0000E+00 a0       0.0000E+00 AA
        H-bond correction              true
        Ion screening                  false
        Surface tension                    1.0000E-05 Eh       1.5569E+01 dyn/cm
        Grid points                               230 per atom
          Number of HB bonds (bound hydrogen)     329
          Number of HB bonds (unbound hydrogen)   44
          Number of XB bonds                      0

 E+G (total)                   0 d,  0 h,  0 min,  0.001 sec
 distance/D3 list               ...        0 min,  0.000 sec (  0.284%)
 non bonded repulsion           ...        0 min,  0.000 sec (  1.974%)
 dCN                            ...        0 min,  0.000 sec (  3.197%)
 EEQ energy and q               ...        0 min,  0.000 sec (  4.277%)
 D3                             ...        0 min,  0.000 sec (  7.799%)
 EEQ gradient                   ...        0 min,  0.000 sec (  4.468%)
 bonds                          ...        0 min,  0.000 sec (  0.972%)
 bend and torsion               ...        0 min,  0.000 sec (  4.154%)
 bonded ATM                     ...        0 min,  0.000 sec (  2.121%)
 HB/XB (incl list setup)        ...        0 min,  0.000 sec (  9.479%)
 GBSA                           ...        0 min,  0.000 sec ( 63.499%)

         :::::::::::::::::::::::::::::::::::::::::::::::::::::
         ::                     SUMMARY                     ::
         :::::::::::::::::::::::::::::::::::::::::::::::::::::
         :: total energy              -6.230394516858 Eh    ::
         :: total w/o Gsolv           -6.190248845044 Eh    ::
         :: total w/o Gsasa/hb        -6.225615215003 Eh    ::
         :: gradient norm              0.181971752147 Eh/a0 ::
         ::.................................................::
         :: bond energy               -6.278158457257 Eh    ::
         :: angle energy               0.029774573669 Eh    ::
         :: torsion energy             0.013387533996 Eh    ::
         :: repulsion energy           0.382484933240 Eh    ::
         :: electrostat energy        -0.305165993990 Eh    ::
         :: dispersion energy         -0.022775700650 Eh    ::
         :: HB energy                 -0.000449666930 Eh    ::
         :: XB energy                  0.000000000000 Eh    ::
         :: bonded atm energy         -0.009346067121 Eh    ::
         :: external energy            0.000000000000 Eh    ::
         :: -> Gsolv                  -0.040145671814 Eh    ::
         ::    -> Gborn               -0.035366369959 Eh    ::
         ::    -> Gsasa                0.009488829939 Eh    ::
         ::    -> Ghb                 -0.014633071049 Eh    ::
         ::    -> Gshift               0.000364939255 Eh    ::
         :: add. restraining           0.000000000000 Eh    ::
         :: total charge              -0.000000000000 e     ::
         ::.................................................::
         :: atomisation energy         0.000000000000 Eh    ::
         :::::::::::::::::::::::::::::::::::::::::::::::::::::

      ----------------------------------------------------------- 
     |                   =====================                   |
     |                        A N C O P T                        |
     |                   =====================                   |
     |               Approximate Normal Coordinate               |
     |                Rational Function Optimizer                |
      ----------------------------------------------------------- 

          ...................................................
          :                      SETUP                      :
          :.................................................:
          :   optimization level         verytight          :
          :   max. optcycles                    10          :
          :   ANC micro-cycles                  10          :
          :   degrees of freedom                99          :
          :.................................................:
          :   RF solver                   davidson          :
          :   write xtbopt.log                true          :
          :   linear?                        false          :
          :   energy convergence         0.1000000E-06 Eh   :
          :   grad. convergence          0.2000000E-03 Eh/α :
          :   maxmium RF displ.          1.0000000          :
          :   Hlow (freq-cutoff)         0.1000000E-01      :
          :   Hmax (freq-cutoff)         5.0000000          :
          :   S6 in model hess.         20.0000000          :
          ...................................................

generating ANC from model Hessian ...
Using GFN-FF Lindh-Hessian
 Shifting diagonal of input Hessian by    0.0000000000000000     
 Lowest  eigenvalues of input Hessian
    0.000000    0.000000    0.000000    0.000000    0.000000    0.000000
    0.015704    0.019771    0.029683    0.031501    0.048439    0.056818
    0.063780    0.071249    0.087219    0.089749    0.094102    0.105310
 Highest eigenvalues
    3.355632    3.750378    3.855977    3.978697    4.136502    4.297645


........................................................................
.............................. CYCLE    1 ..............................
........................................................................
     iter. time                 ...        0 min,  0.001 sec
 * total energy  :    -6.2303945 Eh     change        0.0000000E+00 Eh
   gradient norm :     0.1819718 Eh/α   predicted     0.0000000E+00 (    NaN%)
   displ. norm   :     0.1381195 α      lambda       -0.1501340E-01
   maximum displ.:     0.0519454 α      in ANC's #49, #25, #22, ...

........................................................................
.............................. CYCLE    2 ..............................
........................................................................
     iter. time                 ...        0 min,  0.001 sec
 * total energy  :    -6.2408591 Eh     change       -0.1046455E-01 Eh
   gradient norm :     0.0675062 Eh/α   predicted    -0.7649934E-02 ( -26.90%)
   displ. norm   :     0.1153551 α      lambda       -0.4947693E-02
   maximum displ.:     0.0514371 α      in ANC's #49, #11, #22, ...

........................................................................
.............................. CYCLE    3 ..............................
........................................................................
     iter. time                 ...        0 min,  0.001 sec
 * total energy  :    -6.2437040 Eh     change       -0.2844918E-02 Eh
   gradient norm :     0.0192104 Eh/α   predicted    -0.2507239E-02 ( -11.87%)
   displ. norm   :     0.0384063 α      lambda       -0.4893090E-03
   maximum displ.:     0.0186667 α      in ANC's #49, #35, #6, ...

........................................................................
.............................. CYCLE    4 ..............................
........................................................................
     iter. time                 ...        0 min,  0.001 sec
 * total energy  :    -6.2440374 Eh     change       -0.3334376E-03 Eh
   gradient norm :     0.0108223 Eh/α   predicted    -0.2450909E-03 ( -26.50%)
   displ. norm   :     0.0306152 α      lambda       -0.1894900E-03
   maximum displ.:     0.0147017 α      in ANC's #35, #49, #33, ...

........................................................................
.............................. CYCLE    5 ..............................
........................................................................
     iter. time                 ...        0 min,  0.001 sec
 * total energy  :    -6.2441547 Eh     change       -0.1173006E-03 Eh
   gradient norm :     0.0043481 Eh/α   predicted    -0.9491111E-04 ( -19.09%)
   displ. norm   :     0.0190106 α      lambda       -0.4409242E-04
   maximum displ.:     0.0079759 α      in ANC's #3, #11, #33, ...

........................................................................
.............................. CYCLE    6 ..............................
........................................................................
     iter. time                 ...        0 min,  0.001 sec
 * total energy  :    -6.2441865 Eh     change       -0.3181332E-04 Eh
   gradient norm :     0.0033563 Eh/α   predicted    -0.2206670E-04 ( -30.64%)
   displ. norm   :     0.0216542 α      lambda       -0.3297335E-04
   maximum displ.:     0.0109661 α      in ANC's #3, #33, #11, ...

........................................................................
.............................. CYCLE    7 ..............................
........................................................................
     iter. time                 ...        0 min,  0.001 sec
 * total energy  :    -6.2442083 Eh     change       -0.2180494E-04 Eh
   gradient norm :     0.0030638 Eh/α   predicted    -0.1649877E-04 ( -24.33%)
   displ. norm   :     0.0136156 α      lambda       -0.1285194E-04
   maximum displ.:     0.0070194 α      in ANC's #3, #1, #30, ...

........................................................................
.............................. CYCLE    8 ..............................
........................................................................
     iter. time                 ...        0 min,  0.001 sec
 * total energy  :    -6.2442170 Eh     change       -0.8699005E-05 Eh
   gradient norm :     0.0018919 Eh/α   predicted    -0.6438114E-05 ( -25.99%)
   displ. norm   :     0.0146607 α      lambda       -0.5577344E-05
   maximum displ.:     0.0074897 α      in ANC's #1, #3, #30, ...

........................................................................
.............................. CYCLE    9 ..............................
........................................................................
     iter. time                 ...        0 min,  0.000 sec
 * total energy  :    -6.2442212 Eh     change       -0.4113513E-05 Eh
   gradient norm :     0.0011021 Eh/α   predicted    -0.2796188E-05 ( -32.02%)
   displ. norm   :     0.0052789 α      lambda       -0.1475990E-05
   maximum displ.:     0.0029039 α      in ANC's #1, #3, #11, ...

........................................................................
.............................. CYCLE   10 ..............................
........................................................................
     iter. time                 ...        0 min,  0.000 sec
 * total energy  :    -6.2442230 Eh     change       -0.1801433E-05 Eh
   gradient norm :     0.0008325 Eh/α   predicted    -0.7442422E-06 ( -58.69%)
   displ. norm   :     0.0197334 α      lambda       -0.3173717E-05
   maximum displ.:     0.0116445 α      in ANC's #1, #3, #4, ...

   *** FAILED TO CONVERGE GEOMETRY OPTIMIZATION IN 10 ITERATIONS ***


 ANCopt (total)                0 d,  0 h,  0 min,  0.008 sec
 optimizer setup                ...        0 min,  0.000 sec (  0.769%)
 model hessian                  ...        0 min,  0.000 sec (  3.088%)
 ANC generation                 ...        0 min,  0.001 sec (  8.479%)
 coordinate transformation      ...        0 min,  0.000 sec (  0.435%)
 single point calculation       ...        0 min,  0.006 sec ( 75.329%)
 optimization log               ...        0 min,  0.000 sec (  5.625%)
 hessian update                 ...        0 min,  0.000 sec (  0.671%)
 rational function              ...        0 min,  0.000 sec (  3.460%)

================
 final structure:
================
ATOM      1  C   GLY A   9      -6.804 -13.313   3.135  1.00  0.00           C  
ATOM      2  O   GLY A   9      -7.400 -13.627   2.134  1.00  0.00           O  
ATOM      3  N   GLY A  10      -5.523 -12.860   3.154  1.00  0.00           N  
ATOM      4  CA  GLY A  10      -4.798 -12.700   1.931  1.00  0.00           C  
ATOM      5  C   GLY A  10      -4.720 -11.254   1.516  1.00  0.00           C  
ATOM      6  O   GLY A  10      -5.728 -10.583   1.600  1.00  0.00           O  
ATOM      7  H   GLY A  10      -5.117 -12.389   3.968  1.00  0.00           H  
ATOM      8  HA2 GLY A  10      -3.815 -13.158   2.039  1.00  0.00           H  
ATOM      9  HA3 GLY A  10      -5.340 -13.260   1.156  1.00  0.00           H  
ATOM     10  N   GLY A  11      -3.556 -10.681   1.021  1.00  0.00           N  
ATOM     11  CA  GLY A  11      -2.285 -11.356   0.783  1.00  0.00           C  
ATOM     12  C   GLY A  11      -1.896 -11.334  -0.662  1.00  0.00           C  
ATOM     13  O   GLY A  11      -2.591 -11.900  -1.478  1.00  0.00           O  
ATOM     14  H   GLY A  11      -3.602  -9.743   0.630  1.00  0.00           H  
ATOM     15  HA2 GLY A  11      -1.513 -10.883   1.398  1.00  0.00           H  
ATOM     16  HA3 GLY A  11      -2.338 -12.399   1.108  1.00  0.00           H  
ATOM     17  N   GLY A  12      -0.737 -10.670  -1.004  1.00  0.00           N  
ATOM     18  CA  GLY A  12      -0.379 -10.470  -2.390  1.00  0.00           C  
ATOM     19  C   GLY A  12      -0.688  -9.063  -2.829  1.00  0.00           C  
ATOM     20  O   GLY A  12      -1.668  -8.521  -2.362  1.00  0.00           O  
ATOM     21  H   GLY A  12      -0.289 -10.024  -0.353  1.00  0.00           H  
ATOM     22  HA2 GLY A  12       0.680 -10.711  -2.518  1.00  0.00           H  
ATOM     23  HA3 GLY A  12      -0.963 -11.178  -2.987  1.00  0.00           H  
ATOM     24  N   GLY A  13       0.098  -8.396  -3.753  1.00  0.00           N  
ATOM     25  CA  GLY A  13       1.317  -8.901  -4.374  1.00  0.00           C  
ATOM     26  C   GLY A  13       1.473  -8.380  -5.781  1.00  0.00           C  
ATOM     27  O   GLY A  13       0.502  -8.201  -6.469  1.00  0.00           O  
ATOM     28  H   GLY A  13      -0.202  -7.489  -4.098  1.00  0.00           H  
ATOM     29  HA2 GLY A  13       2.171  -8.620  -3.756  1.00  0.00           H  
ATOM     30  HA3 GLY A  13       1.275  -9.994  -4.412  1.00  0.00           H  
ATOM     31  N   GLY A  14       2.750  -8.134  -6.274  1.00  0.00           N  
ATOM     32  CA  GLY A  14       3.016  -7.708  -7.568  1.00  0.00           C  
ATOM     33  H   GLY A  14       3.560  -8.224  -5.648  1.00  0.00           H  
ATOM     34  HA2 GLY A  14       3.857  -8.121  -8.050  1.00  0.00           H  
ATOM     35  HA3 GLY A  14       2.105  -7.718  -8.149  1.00  0.00           H  
END

 Bond Distances (Angstroems)
 ---------------------------
C1-O2=1.2067         C1-N3=1.3590         O2-C1=1.2067         N3-C1=1.3590         N3-C4=1.4304         N3-H7=1.0239         
C4-N3=1.4304         C4-C5=1.5066         C4-H8=1.0900         C4-H9=1.0985         C5-C4=1.5066         C5-O6=1.2141         
C5-N10=1.3891        O6-C5=1.2141         H7-N3=1.0239         H8-C4=1.0900         H9-C4=1.0985         N10-C5=1.3891        
N10-C11=1.4587       N10-H14=1.0175       C11-N10=1.4587       C11-C12=1.4963       C11-H15=1.0945       C11-H16=1.0928       
C12-C11=1.4963       C12-O13=1.2123       C12-N17=1.3788       O13-C12=1.2123       H14-N10=1.0175       H15-C11=1.0945       
H16-C11=1.0928       N17-C12=1.3788       N17-C18=1.4448       N17-H21=1.0209       C18-N17=1.4448       C18-C19=1.5063       
C18-H22=1.0935       C18-H23=1.0956       C19-C18=1.5063       C19-O20=1.2137       C19-N24=1.3838       O20-C19=1.2137       
H21-N17=1.0209       H22-C18=1.0935       H23-C18=1.0956       N24-C19=1.3838       N24-C25=1.4577       N24-H28=1.0163       
C25-N24=1.4577       C25-C26=1.5080       C25-H29=1.0913       C25-H30=1.0947       C26-C25=1.5080       C26-O27=1.2042       
C26-N31=1.3907       O27-C26=1.2042       H28-N24=1.0163       H29-C25=1.0913       H30-C25=1.0947       N31-C26=1.3907       
N31-C32=1.3883       N31-H33=1.0277       C32-N31=1.3883       C32-H34=1.0540       C32-H35=1.0806       H33-N31=1.0277       
H34-C32=1.0540       H35-C32=1.0806       
 C  H  Rav=1.0886 sigma=0.0124  Rmin=1.0540  Rmax=1.0985    10
 C  C  Rav=1.5043 sigma=0.0046  Rmin=1.4963  Rmax=1.5080     4
 N  H  Rav=1.0213 sigma=0.0042  Rmin=1.0163  Rmax=1.0277     5
 N  C  Rav=1.4081 sigma=0.0343  Rmin=1.3590  Rmax=1.4587    10
 O  C  Rav=1.2102 sigma=0.0040  Rmin=1.2042  Rmax=1.2141     5

 selected bond angles (degree)
 --------------------
N3-C1-O2=124.35                C4-N3-C1=120.18                H7-N3-C1=122.53                H7-N3-C4=115.32                
C5-C4-N3=111.65                H8-C4-N3=109.00                H8-C4-C5=112.56                H9-C4-N3=107.26                
H9-C4-C5=108.68                H9-C4-H8=107.48                O6-C5-C4=117.93                N10-C5-C4=122.53               
N10-C5-O6=119.53               C11-N10-C5=126.69              H14-N10-C5=118.64              H14-N10-C11=113.82             

 selected dihedral angles (degree)
 ---------------------------------
C4-N3-C1-O2=  1.30            H7-N3-C1-O2=164.64            C5-C4-N3-C1=102.95            C5-C4-N3-H7=298.46            
H8-C4-N3-C1=227.91            H8-C4-N3-H7= 63.43            H9-C4-N3-C1=343.98            H9-C4-N3-H7=179.50            
O6-C5-C4-N3=316.05            O6-C5-C4-H8=193.09            O6-C5-C4-H9= 74.16            N10-C5-C4-N3=137.39           
N10-C5-C4-H8= 14.43           N10-C5-C4-H9=255.50           C11-N10-C5-C4=  2.32          C11-N10-C5-O6=183.68          
H14-N10-C5-C4=171.02          H14-N10-C5-O6=352.38          
           -------------------------------------------------
          |                Final Singlepoint                |
           -------------------------------------------------
         :::::::::::::::::::::::::::::::::::::::::::::::::::::
         ::                     SUMMARY                     ::
         :::::::::::::::::::::::::::::::::::::::::::::::::::::
         :: total energy              -6.244226266042 Eh    ::
         :: total w/o Gsolv           -6.204197774884 Eh    ::
         :: total w/o Gsasa/hb        -6.239561815629 Eh    ::
         :: gradient norm              0.000794502873 Eh/a0 ::
         ::.................................................::
         :: bond energy               -6.301540543679 Eh    ::
         :: angle energy               0.025619041965 Eh    ::
         :: torsion energy             0.011986199117 Eh    ::
         :: repulsion energy           0.391039333719 Eh    ::
         :: electrostat energy        -0.305125960388 Eh    ::
         :: dispersion energy         -0.022781708577 Eh    ::
         :: HB energy                 -0.000445362802 Eh    ::
         :: XB energy                  0.000000000000 Eh    ::
         :: bonded atm energy         -0.009412608880 Eh    ::
         :: external energy            0.000000000000 Eh    ::
         :: -> Gsolv                  -0.040028491158 Eh    ::
         ::    -> Gborn               -0.035364040745 Eh    ::
         ::    -> Gsasa                0.009533001318 Eh    ::
         ::    -> Ghb                 -0.014562390987 Eh    ::
         ::    -> Gshift               0.000364939255 Eh    ::
         :: add. restraining           0.006463834640 Eh    ::
         :: total charge               0.000000000000 e     ::
         ::.................................................::
         :: atomisation energy         0.000000000000 Eh    ::
         :::::::::::::::::::::::::::::::::::::::::::::::::::::

           -------------------------------------------------
          |                Property Printout                |
           -------------------------------------------------
           -------------------------------------------------
          |                Geometry Summary                 |
           -------------------------------------------------

      molecular mass/u    :      285.2570109
   center of mass at/Å    :       -1.9866039     -10.3976338      -1.4939445
  moments of inertia/u·Å² :        0.3513201E+03   0.6570723E+04   0.6611435E+04
rotational constants/cm⁻¹ :        0.4798368E-01   0.2565567E-02   0.2549769E-02

 * 29 selected distances

     #   Z          #   Z                                           value/Å
     1   6  C       3   7  N                                      1.3589915
     3   7  N       4   6  C                                      1.4304101
     5   6  C       6   8  O                                      1.2140881
     3   7  N       7   1  H                                      1.0239257
     4   6  C       8   1  H                                      1.0900229
     4   6  C       9   1  H                                      1.0985139
     5   6  C      10   7  N                                      1.3891437
    10   7  N      11   6  C                                      1.4587221 (max)
    12   6  C      13   8  O                                      1.2123134
    10   7  N      14   1  H                                      1.0175019
    11   6  C      15   1  H                                      1.0944743
    11   6  C      16   1  H                                      1.0928060
    12   6  C      17   7  N                                      1.3787512
    17   7  N      18   6  C                                      1.4448046
    19   6  C      20   8  O                                      1.2136538
    17   7  N      21   1  H                                      1.0208795
    18   6  C      22   1  H                                      1.0934724
    18   6  C      23   1  H                                      1.0956481
    19   6  C      24   7  N                                      1.3838351
    24   7  N      25   6  C                                      1.4576747
    26   6  C      27   8  O                                      1.2041571
    24   7  N      28   1  H                                      1.0163106 (min)
    25   6  C      29   1  H                                      1.0912904
    25   6  C      30   1  H                                      1.0947420
    26   6  C      31   7  N                                      1.3906686
    31   7  N      32   6  C                                      1.3882566
    31   7  N      33   1  H                                      1.0277108
    32   6  C      34   1  H                                      1.0539775
    32   6  C      35   1  H                                      1.0805819

 * 4 distinct bonds (by element types)

   Z      Z             #   av. dist./Å        max./Å        min./Å
   1 H    6 C          10     1.0885529     1.0985139     1.0539775
   1 H    7 N           5     1.0212657     1.0277108     1.0163106
   6 C    7 N          10     1.4081258     1.4587221     1.3589915
   6 C    8 O           4     1.2110531     1.2140881     1.2041571


optimized geometry written to: xtbopt.pdb


           -------------------------------------------------
          | TOTAL ENERGY               -6.244226266042 Eh   |
          | GRADIENT NORM               0.000794502873 Eh/α |
           -------------------------------------------------
########################################################################
[WARNING] Runtime exception occurred
-1- gfnff_setup: Could not read topology file.
########################################################################

------------------------------------------------------------------------
 unit  open   action     filename
   10 false : read       xtb_settings.inp
   10 false : read       substructure_9.pdb
   10 false : read       xtb_settings.inp
   10 false : written    gfnff_topo
   10 false : written    gfnff_adjacency
   10 false : written    gfnff_charges
   10 false : deleted    .xtboptok
   10 false : replaced   xtbopt.log
   11 false : created    .xtboptok
   11 false : replaced   gfnff_charges
   10 false : replaced   xtbopt.pdb

------------------------------------------------------------------------
 * finished run on 2025/05/27 at 09:37:34.720     
------------------------------------------------------------------------
 total:
 * wall-time:     0 d,  0 h,  0 min,  0.013 sec
 *  cpu-time:     0 d,  0 h,  0 min,  0.013 sec
 * ratio c/w:     0.999 speedup
 SCF:
 * wall-time:     0 d,  0 h,  0 min,  0.001 sec
 *  cpu-time:     0 d,  0 h,  0 min,  0.001 sec
 * ratio c/w:     1.000 speedup
 ANC optimizer:
 * wall-time:     0 d,  0 h,  0 min,  0.009 sec
 *  cpu-time:     0 d,  0 h,  0 min,  0.009 sec
 * ratio c/w:     0.999 speedup

