35
 energy: -6.230300370277 gnorm: 0.176460420538 xtb: 6.6.1 (8d0f1dd)
 C          -6.72200000000000      -13.48300000000000        3.17400000000000
 O          -7.09600000000000      -14.18000000000000        2.25400000000000
 N          -5.60200000000000      -12.69300000000000        3.11100000000000
 C          -4.79400000000000      -12.69900000000000        1.94100000000000
 C          -4.78500000000000      -11.34900000000000        1.26600000000000
 O          -5.84600000000000      -10.77500000000000        1.13000000000000
 H          -5.43600000000000      -11.93200000000000        3.77400000000000
 H          -3.79800000000000      -13.04300000000000        2.19900000000000
 H          -5.22800000000000      -13.43200000000000        1.24100000000000
 N          -3.62600000000000      -10.76800000000000        0.78300000000000
 C          -2.28900000000000      -11.34700000000000        0.78200000000000
 C          -1.72900000000000      -11.45300000000000       -0.60300000000000
 O          -2.12100000000000      -12.33400000000000       -1.33700000000000
 H          -3.70500000000000       -9.91700000000000        0.23100000000000
 H          -1.63500000000000      -10.74600000000000        1.42000000000000
 H          -2.30400000000000      -12.35400000000000        1.21500000000000
 N          -0.79000000000000      -10.52800000000000       -1.00200000000000
 C          -0.37300000000000      -10.47700000000000       -2.38800000000000
 C          -0.80600000000000       -9.16900000000000       -3.01200000000000
 O          -1.89800000000000       -8.73100000000000       -2.71300000000000
 H          -0.63600000000000       -9.66900000000000       -0.47200000000000
 H           0.71100000000000      -10.59800000000000       -2.42600000000000
 H          -0.84100000000000      -11.30500000000000       -2.91000000000000
 N          -0.00700000000000       -8.49500000000000       -3.91700000000000
 C           1.32400000000000       -8.88700000000000       -4.36200000000000
 C           1.53900000000000       -8.52100000000000       -5.81400000000000
 O           0.62000000000000       -8.62200000000000       -6.59800000000000
 H          -0.38300000000000       -7.68200000000000       -4.39700000000000
 H           2.07300000000000       -8.44500000000000       -3.72900000000000
 H           1.41500000000000       -9.98700000000000       -4.29100000000000
 N           2.78700000000000       -8.09200000000000       -6.21500000000000
 C           3.00500000000000       -7.60700000000000       -7.56600000000000
 H           3.50500000000000       -7.83900000000000       -5.53600000000000
 H           3.86300000000000       -8.11000000000000       -8.00500000000000
 H           2.12400000000000       -7.87800000000000       -8.15400000000000
35
 energy: -6.239798095337 gnorm: 0.064285701358 xtb: 6.6.1 (8d0f1dd)
 C          -6.71767350665572      -13.47876437932494        3.17215590379441
 O          -7.09404910581211      -14.18033676918849        2.26290234714013
 N          -5.60485447087075      -12.69721235326530        3.11176544207314
 C          -4.79414752077305      -12.70040796324410        1.93699487870320
 C          -4.78487568704570      -11.35141922049120        1.26444297107478
 O          -5.84595305662101      -10.77741387308753        1.12936888026674
 H          -5.43998375671989      -11.93240439266928        3.77148918013103
 H          -3.79561660233968      -13.04383756042521        2.19984319665168
 H          -5.22482870207445      -13.43464184620988        1.24141128124008
 N          -3.62541479543229      -10.76875745754392        0.78328685976064
 C          -2.28735178070957      -11.34931516515097        0.78284944132225
 C          -1.72862368323056      -11.45248461817044       -0.60269762997153
 O          -2.11986795492664      -12.33416885596367       -1.33677332373318
 H          -3.70425996149877       -9.91728248800083        0.23205924281158
 H          -1.63431012512984      -10.74577754654614        1.42038010468878
 H          -2.30284754398479      -12.35343443940316        1.21553741173050
 N          -0.79062066505118      -10.52679760616300       -1.00168232657724
 C          -0.37377017679681      -10.47062384636551       -2.38625733216832
 C          -0.80677548810435       -9.16853951472056       -3.01196458076671
 O          -1.89580650584280       -8.72792048503387       -2.70780829546480
 H          -0.63767929194103       -9.66818883019205       -0.47103527391565
 H           0.71087012154536      -10.59516258050811       -2.42529342735437
 H          -0.84259352874152      -11.30485085238039       -2.91159289311481
 N          -0.00920723893398       -8.49491278933623       -3.91823179287784
 C           1.31794301513123       -8.89265295372990       -4.37048868800389
 C           1.52790288135330       -8.51471674401421       -5.81989765343282
 O           0.61239041258556       -8.61437426660585       -6.59866835135681
 H          -0.38408012459433       -7.67954778719576       -4.39572716011214
 H           2.07225474662390       -8.44563662000043       -3.73047231295209
 H           1.41051672832589       -9.98538837207705       -4.29451450749081
 N           2.78086172217088       -8.07827345367043       -6.23033304702734
 C           3.01974458620598       -7.64921359109251       -7.55136585540744
 H           3.49794555550202       -7.83811264216597       -5.54185508880212
 H           3.88022241601610       -8.11830620810703       -7.99722317890224
 H           2.13053908837059       -7.85612192795607       -8.14660442195680
35
 energy: -6.242149049213 gnorm: 0.017304360617 xtb: 6.6.1 (8d0f1dd)
 C          -6.71551675572061      -13.47787829902993        3.16966304904938
 O          -7.09297754548501      -14.18185984058177        2.26635405535725
 N          -5.60629321087451      -12.70062757757221        3.11263385851427
 C          -4.79480068754936      -12.70101767943307        1.93364309335879
 C          -4.78519340222606      -11.35284498846552        1.26330744798669
 O          -5.84621985445330      -10.77858309840694        1.12899402583563
 H          -5.44087951106470      -11.93330174001432        3.77039004103383
 H          -3.79477582749794      -13.04333261106479        2.20066071952532
 H          -5.22307541219896      -13.43678784780310        1.24148290803898
 N          -3.62562355035126      -10.76886628786364        0.78312032362634
 C          -2.28655943211723      -11.35070028827981        0.78297099171447
 C          -1.72860632813693      -11.45196488366378       -0.60274965297780
 O          -2.11941075822040      -12.33409304910342       -1.33680912980504
 H          -3.70467050365665       -9.91752804107750        0.23194383082166
 H          -1.63485369657402      -10.74473902840483        1.42023883642987
 H          -2.30246294448736      -12.35284590782504        1.21582901118714
 N          -0.79064311467508      -10.52687408109673       -1.00143377082639
 C          -0.37375475988398      -10.46566991887713       -2.38416411834437
 C          -0.80592322672418       -9.16754553105353       -3.01040168873372
 O          -1.89312825734563       -8.72489345592047       -2.70282440022289
 H          -0.63819587784038       -9.66855011090807       -0.47034550761875
 H           0.71105496805960      -10.59494415670158       -2.42423341997868
 H          -0.84278798179094      -11.30391626554841       -2.91204367189751
 N          -0.00917606732517       -8.49364144244987       -3.91738717497921
 C           1.31498581443841       -8.89706437963806       -4.37528665831989
 C           1.52075290318338       -8.50884827021680       -5.82059765801084
 O           0.60869949894377       -8.60804800454886       -6.59825113079496
 H          -0.38350833055221       -7.67681830272399       -4.39359395618647
 H           2.07153747040264       -8.44542123218000       -3.73118787254389
 H           1.40984026507453       -9.98461082776602       -4.29488607615554
 N           2.77130397011865       -8.05694739574011       -6.23884812576627
 C           3.03012300002533       -7.68629700568439       -7.55090249345530
 H           3.49449654935736       -7.83831768092128       -5.54308820121229
 H           3.89082303234008       -8.12744235438843       -7.99449376265562
 H           2.13141956480811       -7.84417841504660       -8.14370372199417
35
 energy: -6.242447892784 gnorm: 0.010494525093 xtb: 6.6.1 (8d0f1dd)
 C          -6.71574423180133      -13.47829721526603        3.16894172347345
 O          -7.09321646867334      -14.18217634683041        2.26577361513280
 N          -5.60599796527449      -12.70114481528124        3.11312693375712
 C          -4.79513015118243      -12.70095949791693        1.93305184295910
 C          -4.78524069899283      -11.35295461992219        1.26332407669370
 O          -5.84613388290966      -10.77829940613944        1.12938370970516
 H          -5.44018671487130      -11.93359789603932        3.77061233515460
 H          -3.79496193843456      -13.04302466345445        2.20076452506150
 H          -5.22314603042277      -13.43696207227155        1.24134399447695
 N          -3.62573111021183      -10.76869986981086        0.78317683698532
 C          -2.28649683921915      -11.35102009228551        0.78279292161880
 C          -1.72871769427731      -11.45194299424326       -0.60293020425094
 O          -2.11987268227247      -12.33381059976647       -1.33713567337939
 H          -3.70490712801609       -9.91756981761937        0.23181184893498
 H          -1.63508734859689      -10.74466398477097        1.42010892784296
 H          -2.30260349958954      -12.35303135637717        1.21558485828556
 N          -0.79001964797539      -10.52786263500287       -1.00148753433453
 C          -0.37371793630515      -10.46467045390643       -2.38365934258550
 C          -0.80517731451226       -9.16664927921594       -3.00919112906978
 O          -1.89233032058017       -8.72370634770750       -2.70139254663721
 H          -0.63691320031047       -9.66976346335066       -0.47022904291683
 H           0.71082327424592      -10.59666191768569       -2.42487175362492
 H          -0.84302392807054      -11.30294564875424       -2.91204909385524
 N          -0.00879776799767       -8.49246154073890       -3.91652752296836
 C           1.31483827743684       -8.89772271653126       -4.37577611890324
 C           1.52015916923855       -8.50701593515526       -5.81900537840837
 O           0.60932635574149       -8.60840065381049       -6.59841954954195
 H          -0.38379956909682       -7.67637025523183       -4.39355406924424
 H           2.07098031604734       -8.44468044518446       -3.73134301008202
 H           1.41031688317383       -9.98444029952490       -4.29440775731795
 N           2.76578897179386       -8.04488001912551       -6.23872897955316
 C           3.02970051602017       -7.69591064291592       -7.55536728666886
 H           3.49500848676206       -7.84090611211414       -5.54334459416383
 H           3.89440435202903       -8.12604100303633       -7.99151252549788
 H           2.13160746710539       -7.84775538301254       -8.14486503707778
35
 energy: -6.242604278297 gnorm: 0.005645185058 xtb: 6.6.1 (8d0f1dd)
 C          -6.71618297246145      -13.47881972594920        3.16875283640926
 O          -7.09304383952744      -14.18277059937459        2.26509350535854
 N          -5.60562633339567      -12.70076923020684        3.11354135007735
 C          -4.79534795644087      -12.70068402780131        1.93317573067724
 C          -4.78555726275251      -11.35302528696288        1.26312261377660
 O          -5.84651372922963      -10.77842214130420        1.12899045196721
 H          -5.44034701665582      -11.93292341401924        3.77061473404713
 H          -3.79514317149219      -13.04218854918546        2.20126459655381
 H          -5.22300310281006      -13.43708157212755        1.24155508904061
 N          -3.62622758633378      -10.76833469244118        0.78298106022289
 C          -2.28677523483526      -11.35044836562355        0.78283893358972
 C          -1.72866181866731      -11.45177100912970       -0.60270124602180
 O          -2.11976006277057      -12.33374048502381       -1.33681712886002
 H          -3.70570276219727       -9.91769540405834        0.23101160172174
 H          -1.63580622245152      -10.74356576413637        1.42013672166341
 H          -2.30272363769452      -12.35245574424520        1.21592695297503
 N          -0.78909402239043      -10.52885209724200       -1.00148228978488
 C          -0.37348271373237      -10.46466040398106       -2.38331136228492
 C          -0.80441554239480       -9.16636397598565       -3.00843284197571
 O          -1.89194441053404       -8.72349497775277       -2.70139881896131
 H          -0.63535589459343       -9.67059219017009       -0.47061888721304
 H           0.71068141081792      -10.59912325738463       -2.42580400595699
 H          -0.84274626168576      -11.30262272552169       -2.91150925474802
 N          -0.00809413158769       -8.49164381485641       -3.91559659484392
 C           1.31535534887379       -8.89858308480026       -4.37575209816093
 C           1.52111639246929       -8.50655477652117       -5.81732756981331
 O           0.61112943612894       -8.61180701113164       -6.59897635997425
 H          -0.38415418022690       -7.67696637236749       -4.39412273579970
 H           2.07088095978764       -8.44494244237059       -3.73150392569902
 H           1.41052595477286       -9.98521619105202       -4.29444866806270
 N           2.76105527694892       -8.03408181563273       -6.23757328732525
 C           3.02732238615828       -7.69854298006331       -7.55870749667024
 H           3.49836641820233       -7.85037631476938       -5.54465002462246
 H           3.89575874878636       -8.12088178806106       -7.98873771666901
 H           2.12951753391497       -7.84699776874666       -8.14553386463305
35
 energy: -6.242660070393 gnorm: 0.004823238431 xtb: 6.6.1 (8d0f1dd)
 C          -6.71629964487267      -13.47885758711181        3.16905145339239
 O          -7.09295024788355      -14.18276192682452        2.26503398479628
 N          -5.60541016212425      -12.70037586292513        3.11369259192629
 C          -4.79535183792855      -12.70054774208683        1.93351970272328
 C          -4.78567560359366      -11.35298513485841        1.26309716176215
 O          -5.84669766967501      -10.77848400597889        1.12877334396799
 H          -5.44074766774865      -11.93238657448356        3.77057403483374
 H          -3.79518289045125      -13.04188989846245        2.20148429820444
 H          -5.22295878447115      -13.43698992677400        1.24174226555073
 N          -3.62641313373505      -10.76811805419816        0.78298012097380
 C          -2.28694754158435      -11.34997706742756        0.78299785134021
 C          -1.72860590524467      -11.45164681347492       -0.60244842579879
 O          -2.11953474040966      -12.33376183180463       -1.33648436831628
 H          -3.70599290909318       -9.91768063109898        0.23074359508072
 H          -1.63606191588319      -10.74302202295400        1.42026560774514
 H          -2.30274058966951      -12.35206546629222        1.21623441115902
 N          -0.78865429153067      -10.52919487328223       -1.00154451542456
 C          -0.37349048304498      -10.46505310511761       -2.38340876939783
 C          -0.80449856400943       -9.16666832061921       -3.00875648366742
 O          -1.89263334129226       -8.72434534197209       -2.70300459849662
 H          -0.63462163339813       -9.67070279319043       -0.47110897266043
 H           0.71050362228086      -10.60019757558588       -2.42658002117500
 H          -0.84245972413041      -11.30296382680486       -2.91118793938248
 N          -0.00782645989615       -8.49123579395438       -3.91511590535169
 C           1.31565142188449       -8.89853899719314       -4.37538438543293
 C           1.52185311596654       -8.50627611371737       -5.81665887927984
 O           0.61271741280333       -8.61614612080641       -6.59960539303903
 H          -0.38457354762894       -7.67762543783003       -4.39475558319889
 H           2.07088384399010       -8.44489054707764       -3.73135820298162
 H           1.41038199934282       -9.98548784750957       -4.29458382411039
 N           2.75947041294092       -8.02946207593501       -6.23653035949216
 C           3.02584925140495       -7.69587976254223       -7.55891269848457
 H           3.50137953799202       -7.85859841436843       -5.54582451061264
 H           3.89544144095655       -8.11744833919974       -7.98770286128439
 H           2.12819722973675       -7.84473416653766       -8.14523372586863
35
 energy: -6.242696101669 gnorm: 0.003478397297 xtb: 6.6.1 (8d0f1dd)
 C          -6.71622180512729      -13.47867675654198        3.16948990287037
 O          -7.09296381480076      -14.18243390831265        2.26525868350418
 N          -5.60529022174625      -12.70014008326780        3.11375104265607
 C          -4.79526692662337      -12.70047911830846        1.93386562730947
 C          -4.78566898462482      -11.35286793747256        1.26320558333877
 O          -5.84673064060047      -10.77844544903869        1.12875916125301
 H          -5.44115309822960      -11.93202906619682        3.77054635996886
 H          -3.79515466204447      -13.04186488483371        2.20156898288289
 H          -5.22296902726367      -13.43681038423103        1.24189538193474
 N          -3.62640237715192      -10.76797655849082        0.78312167968409
 C          -2.28702065778536      -11.34965140689359        0.78320448715050
 C          -1.72856784592944      -11.45152064345050       -0.60220201821789
 O          -2.11933194021625      -12.33375220824837       -1.33620083680694
 H          -3.70597381142147       -9.91756359359564        0.23083732878669
 H          -1.63603977048008      -10.74284645521962        1.42045245493631
 H          -2.30271093611474      -12.35183241155424        1.21648298535446
 N          -0.78847406594124      -10.52919195256577       -1.00163300450588
 C          -0.37363409151353      -10.46549397655040       -2.38366852370237
 C          -0.80506388061905       -9.16734833885038       -3.00973860974644
 O          -1.89411162273815       -8.72603382596159       -2.70587080883602
 H          -0.63429188578303       -9.67046569900245       -0.47160861107080
 H           0.71031500745749      -10.60045292954005       -2.42723435860358
 H          -0.84211197217242      -11.30368718915187       -2.91097096718740
 N          -0.00766024089385       -8.49081236673500       -3.91464571667617
 C           1.31574660073852       -8.89793333164404       -4.37486569356035
 C           1.52207146993538       -8.50527817862342       -5.81631326460066
 O           0.61431777930196       -8.62118713450872       -6.60030708047302
 H          -0.38495349628423       -7.67814118199877       -4.39527913330924
 H           2.07096745504082       -8.44461994053947       -3.73101147894697
 H           1.41007756613732       -9.98533617282606       -4.29469260072061
 N           2.75887193818326       -8.02613762482110       -6.23536603366568
 C           3.02504856848341       -7.69131746794958       -7.55770802974232
 H           3.50456040063807       -7.86706652191458       -5.54692557750944
 H           3.89427388967893       -8.11545168094885       -7.98772928204803
 H           2.12751710051033       -7.84215362021143       -8.14446803170060
35
 energy: -6.242704971860 gnorm: 0.001602713308 xtb: 6.6.1 (8d0f1dd)
 C          -6.71611012585085      -13.47850110397903        3.16962488902219
 O          -7.09308791170601      -14.18212626691909        2.26542746895366
 N          -5.60532865183918      -12.70020261873654        3.11374566983729
 C          -4.79521312668056      -12.70046148037988        1.93391826598079
 C          -4.78557529283732      -11.35274924804190        1.26335318764614
 O          -5.84661042617947      -10.77829799702479        1.12895481262666
 H          -5.44115110282652      -11.93207727240781        3.77059725056945
 H          -3.79512711483613      -13.04199346541359        2.20152371009726
 H          -5.22302983013239      -13.43668249343279        1.24190987292077
 N          -3.62625644297031      -10.76797939321557        0.78326666287553
 C          -2.28695153223052      -11.34971300505995        0.78327535480756
 C          -1.72858129687829      -11.45148313764680       -0.60216489389601
 O          -2.11934622702228      -12.33370312581511       -1.33618873765138
 H          -3.70574458104763       -9.91744600277395        0.23112939717319
 H          -1.63584129905405      -10.74307379138305        1.42053740494825
 H          -2.30268425393678      -12.35191441107815        1.21648284892666
 N          -0.78863804645265      -10.52894515677706       -1.00166838421386
 C          -0.37371802147000      -10.46559929225059       -2.38378421503815
 C          -0.80552802046251       -9.16788940545935       -3.01050902260800
 O          -1.89518492505877       -8.72734385057583       -2.70780765485960
 H          -0.63453157762280       -9.67017059724684       -0.47171461303961
 H           0.71032186046288      -10.59989501401548       -2.42717825441739
 H          -0.84185576637855      -11.30419624195128       -2.91092251883286
 N          -0.00757650368412       -8.49064569860048       -3.91442870853073
 C           1.31565679064473       -8.89747065116363       -4.37466696748093
 C           1.52168551130856       -8.50436065672218       -5.81634130638470
 O           0.61477211496259       -8.62283557552903       -6.60051076238856
 H          -0.38494104679527       -7.67811840017937       -4.39523953654679
 H           2.07111600947688       -8.44454348964082       -3.73080694309100
 H           1.40995506667196       -9.98504400430900       -4.29466657012525
 N           2.75903694320075       -8.02521027737989       -6.23487591913096
 C           3.02524113358685       -7.68917775999929       -7.55659099432994
 H           3.50566534099755       -7.86977376445600       -5.54715529437399
 H           3.89335859094313       -8.11582877865045       -7.98849097608210
 H           2.12780376169709       -7.84154657178539       -8.14403452336359
35
 energy: -6.242706968958 gnorm: 0.000715979058 xtb: 6.6.1 (8d0f1dd)
 C          -6.71605801590642      -13.47834358198594        3.16959430674494
 O          -7.09330283517481      -14.18180751964039        2.26547188181162
 N          -5.60539215013951      -12.70033436138067        3.11376650586326
 C          -4.79520427573781      -12.70042093157852        1.93384779762559
 C          -4.78542980657177      -11.35259817739151        1.26355040458773
 O          -5.84638979584893      -10.77801919207781        1.12930997599883
 H          -5.44085471713286      -11.93229756605615        3.77075038542926
 H          -3.79513634137186      -13.04215479756450        2.20142545104127
 H          -5.22315913858270      -13.43652728666508        1.24185716216180
 N          -3.62604009149933      -10.76802264576484        0.78343295123405
 C          -2.28680713258768      -11.34997486475201        0.78327192648769
 C          -1.72863282844501      -11.45149582171490       -0.60224852572621
 O          -2.11950960218187      -12.33362608240975       -1.33632391128907
 H          -3.70541139000268       -9.91731784353653        0.23151597518956
 H          -1.63556108642426      -10.74349983968973        1.42057301420313
 H          -2.30267920802804      -12.35217981289411        1.21633821405136
 N          -0.78899144262876      -10.52861130889422       -1.00169604829543
 C          -0.37373278489489      -10.46555594385001       -2.38379568422040
 C          -0.80592524498176       -9.16843099952461       -3.01122349520177
 O          -1.89623674383448       -8.72875552695815       -2.70966122429610
 H          -0.63506064207722       -9.66987917241944       -0.47164133023383
 H           0.71045744150864      -10.59900475637478       -2.42669176080321
 H          -0.84151439980325      -11.30462586282115       -2.91086478844712
 N          -0.00744969085523       -8.49055632563841       -3.91425542593529
 C           1.31556392337510       -8.89720744075781       -4.37462890578835
 C           1.52117876114629       -8.50364311558895       -5.81641871434237
 O           0.61473960375282       -8.62281125229710       -6.60046617660149
 H          -0.38470814106176       -7.67783227784358       -4.39489342140851
 H           2.07133734921781       -8.44469371190609       -3.73069825385670
 H           1.40997336999621       -9.98479548001334       -4.29457187006671
 N           2.75923577597433       -8.02471832303306       -6.23460927403431
 C           3.02570296192941       -7.68845792222993       -7.55582237018889
 H           3.50592923028163       -7.86999599124021       -5.54697325376372
 H           3.89269250254147       -8.11684419913378       -7.98934870354488
 H           2.12837658604915       -7.84196006437290       -8.14387281438575
35
 energy: -6.242707547469 gnorm: 0.000401466473 xtb: 6.6.1 (8d0f1dd)
 C          -6.71610484495394      -13.47831108344830        3.16956691768974
 O          -7.09337346153906      -14.18172396383347        2.26541592486509
 N          -5.60536547836854      -12.70030658289704        3.11380795523356
 C          -4.79522383130704      -12.70038876921847        1.93383644421429
 C          -4.78538108079084      -11.35255110610730        1.26361467387784
 O          -5.84630735952716      -10.77789358927155        1.12944582163540
 H          -5.44069660868587      -11.93235173227790        3.77083847492946
 H          -3.79516309622792      -13.04218181753711        2.20139338702688
 H          -5.22322625518578      -13.43645461857695        1.24183339506592
 N          -3.62597579402139      -10.76801502857176        0.78349072437348
 C          -2.28676049914295      -11.35006334767365        0.78325819134150
 C          -1.72865833485470      -11.45151214464975       -0.60229682165203
 O          -2.11959074761635      -12.33360236010191       -1.33638399046168
 H          -3.70532160017035       -9.91728540066214        0.23160938873929
 H          -1.63548544390569      -10.74362670816048        1.42057314881615
 H          -2.30269108865009      -12.35228383112935        1.21627068798516
 N          -0.78912811609418      -10.52853487881643       -1.00171855256442
 C          -0.37370029885331      -10.46554260006873       -2.38376575806283
 C          -0.80599062869988       -9.16857780685885       -3.01140163336085
 O          -1.89659096633746       -8.72926963381609       -2.71031674387187
 H          -0.63524931878023       -9.66982423229420       -0.47160988371805
 H           0.71052405521652      -10.59880814575862       -2.42645302157938
 H          -0.84133948297787      -11.30471800609793       -2.91078294479208
 N          -0.00736445413192       -8.49052408678757       -3.91417715918752
 C           1.31561541796757       -8.89730250072509       -4.37465198300111
 C           1.52122643978988       -8.50373462988109       -5.81637003778654
 O           0.61463282084871       -8.62233741915088       -6.60037811739058
 H          -0.38458249898215       -7.67772007182742       -4.39472882637695
 H           2.07142838189793       -8.44486379358635       -3.73071151348011
 H           1.41000326835668       -9.98485860355441       -4.29458205133008
 N           2.75915316097396       -8.02455542532089       -6.23458689192320
 C           3.02571852812848       -7.68874518416460       -7.55593749164681
 H           3.50582332328002       -7.86955780130207       -5.54687100198146
 H           3.89275519760421       -8.11682377122422       -7.98929961932126
 H           2.12839069574075       -7.84214932464741       -8.14393109230496
