      -----------------------------------------------------------      
     |                   =====================                   |     
     |                           x T B                           |     
     |                   =====================                   |     
     |                         S. Grimme                         |     
     |          Mulliken Center for Theoretical Chemistry        |     
     |                    University of Bonn                     |     
      -----------------------------------------------------------      

   * xtb version 6.6.1 (8d0f1dd) compiled by 'conda@1efc2f54142f' on 2023-08-01

   xtb is free software: you can redistribute it and/or modify it under
   the terms of the GNU Lesser General Public License as published by
   the Free Software Foundation, either version 3 of the License, or
   (at your option) any later version.
   
   xtb is distributed in the hope that it will be useful,
   but WITHOUT ANY WARRANTY; without even the implied warranty of
   MERCHANTABILITY or FITNESS FOR A PARTICULAR PURPOSE.  See the
   GNU Lesser General Public License for more details.
   
   Cite this work as:
   * C. Bannwarth, E. Caldeweyher, S. Ehlert, A. Hansen, P. Pracht,
     J. Seibert, S. Spicher, S. Grimme, WIREs Comput. Mol. Sci., 2020, 11,
     e01493. DOI: 10.1002/wcms.1493
   
   for GFN2-xTB:
   * C. Bannwarth, S. Ehlert and S. Grimme., J. Chem. Theory Comput., 2019,
     15, 1652-1671. DOI: 10.1021/acs.jctc.8b01176
   for GFN1-xTB:
   * S. Grimme, C. Bannwarth, P. Shushkov, J. Chem. Theory Comput., 2017,
     13, 1989-2009. DOI: 10.1021/acs.jctc.7b00118
   for GFN0-xTB:
   * P. Pracht, E. Caldeweyher, S. Ehlert, S. Grimme, ChemRxiv, 2019, preprint.
     DOI: 10.26434/chemrxiv.8326202.v1
   for GFN-FF:
   * S. Spicher and S. Grimme, Angew. Chem. Int. Ed., 2020, 59, 15665-15673.
     DOI: 10.1002/anie.202004239
   
   for ALPB and GBSA implicit solvation:
   * S. Ehlert, M. Stahn, S. Spicher, S. Grimme, J. Chem. Theory Comput.,
     2021, 17, 4250-4261. DOI: 10.1021/acs.jctc.1c00471
   
   for DFT-D4:
   * E. Caldeweyher, C. Bannwarth and S. Grimme, J. Chem. Phys., 2017,
     147, 034112. DOI: 10.1063/1.4993215
   * E. Caldeweyher, S. Ehlert, A. Hansen, H. Neugebauer, S. Spicher,
     C. Bannwarth and S. Grimme, J. Chem. Phys., 2019, 150, 154122.
     DOI: 10.1063/1.5090222
   * E. Caldeweyher, J.-M. Mewes, S. Ehlert and S. Grimme, Phys. Chem. Chem. Phys.
     2020, 22, 8499-8512. DOI: 10.1039/D0CP00502A
   
   for sTDA-xTB:
   * S. Grimme and C. Bannwarth, J. Chem. Phys., 2016, 145, 054103.
     DOI: 10.1063/1.4959605
   
   in the mass-spec context:
   * V. Asgeirsson, C. Bauer and S. Grimme, Chem. Sci., 2017, 8, 4879.
     DOI: 10.1039/c7sc00601b
   * J. Koopman and S. Grimme, ACS Omega 2019, 4, 12, 15120-15133.
     DOI: 10.1021/acsomega.9b02011
   
   for metadynamics refer to:
   * S. Grimme, J. Chem. Theory Comput., 2019, 155, 2847-2862
     DOI: 10.1021/acs.jctc.9b00143
   
   for SPH calculations refer to:
   * S. Spicher and S. Grimme, J. Chem. Theory Comput., 2021, 17, 1701-1714
     DOI: 10.1021/acs.jctc.0c01306
   
   with help from (in alphabetical order)
   P. Atkinson, C. Bannwarth, F. Bohle, G. Brandenburg, E. Caldeweyher
   M. Checinski, S. Dohm, S. Ehlert, S. Ehrlich, I. Gerasimov, C. Hölzer
   A. Katbashev, J. Koopman, C. Lavigne, S. Lehtola, F. März, M. Müller,
   F. Musil, H. Neugebauer, J. Pisarek, C. Plett, P. Pracht, F. Pultar,
   J. Seibert, P. Shushkov, S. Spicher, M. Stahn, M. Steiner, T. Strunk,
   J. Stückrath, T. Rose, and J. Unsleber
   
 * started run on 2025/05/27 at 09:38:03.933     

           -------------------------------------------------
          |                Calculation Setup                |
           -------------------------------------------------

          program call               : xtb ../inputed_PDB/AF-P0DL07-F1-model_v4_protonated_ph7.pdb --opt --alpb water --verbose --gfnff --input xtb_settings.inp --verbose
          coordinate file            : ../inputed_PDB/AF-P0DL07-F1-model_v4_protonated_ph7.pdb
          xtbhome directory          : /home/dargen3
          path for xtb               : /home/dargen3
          xcontrol input file        : xtb_settings.inp
          omp threads                :                     1

$$$$$$$$$$$$$$$$$$$$$$$$$$$$$$$$$$$$$$$$$$$$$$$$$$$$$$$$$$$$$$$$$$$$$$$$
 CONSTRAINTS & SCANS: DEBUG SECTION
$$$$$$$$$$$$$$$$$$$$$$$$$$$$$$$$$$$$$$$$$$$$$$$$$$$$$$$$$$$$$$$$$$$$$$$$
   ID    Z sym.   atoms
    1    7  N     1, 8, 10, 20, 27, 29, 37, 49, 56, 58, 66, 73, 75, 83, 93,
                  103, 119, 126, 133, 140, 147, 154, 161, 168, 175, 182
    2    6  C     2-4, 6, 7, 9, 21-23, 25, 26, 28, 38-40, 42, 50-52, 54, 55,
                  57, 67-69, 71, 72, 74, 84-86, 94-96, 104-106, 108, 109,
                  120, 121, 127, 128, 134, 135, 141, 142, 148, 149, 155, 156,
                  162, 163, 169, 170, 176, 177, 183-185
    3    8  O     5, 24, 41, 43, 44, 53, 70, 87, 97, 107, 122, 129, 136, 143,
                  150, 157, 164, 171, 178, 186, 187
    4    1  H     11-19, 30-36, 45-48, 59-65, 76-82, 88-92, 98-102, 110-118,
                  123-125, 130-132, 137-139, 144-146, 151-153, 158-160,
                  165-167, 172-174, 179-181, 188-192
> constrain
-> force constant=1.0
-> atoms: 2,21,38,50,67,84,94,104,120,127,134,141,148,155,162,169,176,183
--> 1: 2
--> 2: 21
--> 3: 38
--> 4: 50
--> 5: 67
--> 6: 84
--> 7: 94
--> 8: 104
--> 9: 120
--> 10: 127
--> 11: 134
--> 12: 141
--> 13: 148
--> 14: 155
--> 15: 162
--> 16: 169
--> 17: 176
--> 18: 183
$$$$$$$$$$$$$$$$$$$$$$$$$$$$$$$$$$$$$$$$$$$$$$$$$$$$$$$$$$$$$$$$$$$$$$$$
           -------------------------------------------------
          |                   Constraints                   |
           -------------------------------------------------

 * 18 constrained atom positions
   positions refering to input geometry

     #   Z                                   position/Å      displ./Å
     2   6 C    -21.1080020   -18.7100017    21.7280020     0.0000000
    21   6 C    -18.9830018   -19.6060018    18.7380017     0.0000000
    38   6 C    -18.6570017   -16.4630015    16.6330015     0.0000000
    50   6 C    -16.2960015   -17.4860016    13.8690013     0.0000000
    67   6 C    -14.3680013   -14.2880013    13.1920012     0.0000000
    84   6 C    -13.3720012   -15.2880014     9.6620009     0.0000000
    94   6 C    -10.0120009   -13.5880013     9.1230008     0.0000000
   104   6 C    -10.2890010   -11.4620011     5.9580006     0.0000000
   120   6 C     -7.4510007   -13.4620012     4.4550004     0.0000000
   127   6 C     -4.7940004   -12.6990012     1.9410002     0.0000000
   134   6 C     -2.2890002   -11.3470011     0.7820001     0.0000000
   141   6 C     -0.3730000   -10.4770010    -2.3880002     0.0000000
   148   6 C      1.3240001    -8.8870008    -4.3620004     0.0000000
   155   6 C      3.0050003    -7.6070007    -7.5660007     0.0000000
   162   6 C      5.4280005    -5.9890006    -8.7440008     0.0000000
   169   6 C      6.1780006    -4.2520004   -12.0880011     0.0000000
   176   6 C      7.7600007    -2.0220002   -13.5740013     0.0000000
   183   6 C      9.7400009     0.3630000   -15.7630015     0.0000000

     applying 153 atom pairwise harmonic potentials
       applied force constant per pair:     0.0588235
     effective force constant per atom:     1.0000000
         constraining energy/grad norm:     0.0000000     0.0000000

     total constraint energy/grad norm:     0.0000000     0.0000000

          charge from pdb residues: 0

          entering GFN-FF setup routine... 192

          ==================== Thresholds ====================
          CN  :   150.00000
          rep :   500.00000
          disp:  2500.00000
          HB1 :   250.00000
          HB2 :   450.00000

          Pauling EN used:
          Z : 1  EN :  2.20
          Z : 6  EN :  2.55
          Z : 7  EN :  3.04
          Z : 8  EN :  3.44
          electric field strengths (au): 0.000

           ------------------------------------------------- 
          |           Force Field Initialization            |
           ------------------------------------------------- 

          distances ...
          ----------------------------------------
          generating topology and atomic info file ...
          pair mat ...
          computing topology distances matrix with Floyd-Warshall algo ...
          making topology EEQ charges ...
          #fragments for EEQ constrain from pdb file: 18
          ----------------------------------------
          generating topology and atomic info file ...
          pair mat ...
          computing topology distances matrix with Floyd-Warshall algo ...
          making topology EEQ charges ...
          #fragments for EEQ constrain from pdb file: 18
          rings ...
          # BATM   1964
          # H in HB   76
          doing iterative Hueckel for 23 subsystem(s) ...
          iterative Hueckel run to get P ...
Hueckel system :  1 charge :   0 ndim/Nel :    3    4   eps(HOMO/LUMO)   -0.904378   -0.904378
Hueckel system :  2 charge :   0 ndim/Nel :    5    6   eps(HOMO/LUMO)   -1.246338    3.256391
Hueckel system :  3 charge :   0 ndim/Nel :    3    4   eps(HOMO/LUMO)   -0.941297   -0.941297
Hueckel system :  4 charge :   0 ndim/Nel :    5    6   eps(HOMO/LUMO)   -1.252278    3.252145
Hueckel system :  5 charge :   0 ndim/Nel :    3    4   eps(HOMO/LUMO)   -0.889129   -0.889129
Hueckel system :  6 charge :   0 ndim/Nel :    3    3   eps(HOMO/LUMO)   -0.828844   -0.828844
Hueckel system :  7 charge :   0 ndim/Nel :    3    4   eps(HOMO/LUMO)   -0.898131   -0.898131
Hueckel system :  8 charge :   0 ndim/Nel :    5    6   eps(HOMO/LUMO)   -1.252144    3.252287
Hueckel system :  9 charge :   0 ndim/Nel :    3    4   eps(HOMO/LUMO)   -0.900685   -0.900685
Hueckel system : 10 charge :   0 ndim/Nel :    5    6   eps(HOMO/LUMO)   -1.251169    3.252729
Hueckel system : 11 charge :   0 ndim/Nel :    3    4   eps(HOMO/LUMO)   -0.899800   -0.899800
Hueckel system : 12 charge :   0 ndim/Nel :    3    4   eps(HOMO/LUMO)   -0.890323   -0.890323
Hueckel system : 13 charge :   0 ndim/Nel :    3    4   eps(HOMO/LUMO)   -0.919059   -0.919059
Hueckel system : 14 charge :   0 ndim/Nel :    3    4   eps(HOMO/LUMO)   -0.914034   -0.914034
Hueckel system : 15 charge :   0 ndim/Nel :    3    4   eps(HOMO/LUMO)   -0.912749   -0.912749
Hueckel system : 16 charge :   0 ndim/Nel :    3    4   eps(HOMO/LUMO)   -0.912596   -0.912596
Hueckel system : 17 charge :   0 ndim/Nel :    3    4   eps(HOMO/LUMO)   -0.912506   -0.912506
Hueckel system : 18 charge :   0 ndim/Nel :    3    4   eps(HOMO/LUMO)   -0.912501   -0.912501
Hueckel system : 19 charge :   0 ndim/Nel :    3    4   eps(HOMO/LUMO)   -0.912594   -0.912594
Hueckel system : 20 charge :   0 ndim/Nel :    3    4   eps(HOMO/LUMO)   -0.913361   -0.913361
Hueckel system : 21 charge :   0 ndim/Nel :    3    4   eps(HOMO/LUMO)   -0.914463   -0.914463
Hueckel system : 22 charge :   0 ndim/Nel :    3    4   eps(HOMO/LUMO)   -0.921509   -0.921509
Hueckel system : 23 charge :   0 ndim/Nel :    3    3   eps(HOMO/LUMO)   -0.818291   -0.818291

  atom   neighbors  erfCN metchar sp-hybrid imet pi  qest     coordinates
    1   N      4    3.50   0.00         3    0    0  -0.258  -40.202034  -37.805861   42.358211
    2   C      4    3.50   0.00         3    0    0   0.022  -39.888339  -35.356776   41.059969
    3   C      3    2.80   0.00         2    0    1   0.145  -37.545079  -35.591102   39.455592
    4   C      4    3.50   0.00         3    0    0  -0.036  -39.680469  -33.177922   42.955365
    5   O      1    0.98   0.00         2    0    1  -0.391  -35.456931  -35.383232   40.411793
    6   C      3    2.95   0.00         2    0    1   0.038  -41.800742  -33.125009   44.852650
    7   C      3    2.97   0.00         2    0    1   0.033  -44.206363  -34.047196   44.569191
    8   N      3    2.88   0.00         3    0    1  -0.197  -41.649564  -32.110226   47.239374
    9   C      3    3.02   0.00         2    0    1   0.074  -43.892669  -32.444708   48.378879
   10   N      2    2.02   0.00         2    0    1  -0.208  -45.481928  -33.673030   46.834972
   11   H      1    0.98   0.00         0    0    0   0.117  -41.846095  -37.822868   43.286067
   12   H      1    0.98   0.00         0    0    0   0.056  -41.367995  -35.095994   39.948810
   13   H      1    0.98   0.00         0    0    0   0.061  -38.043966  -33.332879   43.902117
   14   H      1    0.98   0.00         0    0    0   0.061  -39.691808  -31.533860   42.010501
   15   H      1    0.98   0.00         0    0    0   0.124  -40.162349  -31.276857   48.000933
   16   H      1    0.98   0.00         0    0    0   0.062  -44.913121  -34.842770   43.021505
   17   H      1    0.98   0.00         0    0    0   0.062  -44.314078  -31.864562   50.124985
   18   H      1    0.98   0.00         0    0    0   0.117  -40.185026  -39.200479   41.086425
   19   H      1    0.98   0.00         0    0    0   0.117  -38.786629  -38.057194   43.582754
   20   N      3    2.80   0.00        -3    0    1  -0.169  -37.924914  -36.441479   37.131229
   21   C      4    3.50   0.00         3    0    0   0.030  -35.872671  -37.049970   35.409688
   22   C      3    2.80   0.00         2    0    1   0.133  -36.182586  -35.294415   33.155245
   23   C      4    3.49   0.00         3    0    0  -0.035  -35.938811  -39.873221   34.706710
   24   O      1    0.98   0.00         2    0    1  -0.376  -37.240833  -36.010621   31.222055
   25   C      3    2.95   0.00         2    0    1   0.044  -35.970937  -41.624997   36.953594
   26   C      3    2.97   0.00         2    0    1   0.033  -38.076092  -42.437580   38.212152
   27   N      3    2.88   0.00         3    0    1  -0.192  -33.916804  -42.690803   38.134673
   28   C      3    3.02   0.00         2    0    1   0.078  -34.767181  -44.077862   40.086760
   29   N      2    2.01   0.00         2    0    1  -0.188  -37.297525  -43.907787   40.258725
   30   H      1    0.97   0.00         0    0    0   0.138  -39.835427  -36.638010   36.639900
   31   H      1    0.98   0.00         0    0    0   0.070  -34.247507  -36.660687   36.244947
   32   H      1    0.98   0.00         0    0    0   0.072  -37.492166  -40.211482   33.667361
   33   H      1    0.98   0.00         0    0    0   0.072  -34.408133  -40.279512   33.659802
   34   H      1    0.98   0.00         0    0    0   0.138  -32.125344  -42.486712   37.652793
   35   H      1    0.98   0.00         0    0    0   0.077  -39.861883  -42.053965   37.756728
   36   H      1    0.98   0.00         0    0    0   0.074  -33.674920  -45.094535   41.245162
   37   N      3    2.80   0.00        -3    0    1  -0.098  -35.468270  -32.922809   33.480278
   38   C      4    3.50   0.00         3    0    0   0.036  -35.256620  -31.110561   31.431815
   39   C      3    2.80   0.00         2    0    1   0.218  -32.709269  -31.524411   30.137352
   40   C      4    3.49   0.00         3    0    0  -0.028  -35.772516  -28.398804   32.323765
   41   O      1    0.98   0.00         2    0    1  -0.321  -30.653247  -31.031193   31.099223
   42   C      3    2.79   0.00         2    0    1   0.278  -34.744505  -27.837556   34.967492
   43   O      1    0.98   0.00         2    0    1  -0.314  -35.785744  -28.956273   36.789188
   44   O      1    0.98   0.00         2    0    1  -0.314  -32.947375  -26.340892   35.160244
   45   H      1    0.97   0.00         0    0    0   0.170  -35.061979  -32.454156   35.371894
   46   H      1    0.98   0.00         0    0    0   0.120  -36.586987  -31.522521   30.165698
   47   H      1    0.98   0.00         0    0    0   0.126  -34.958044  -27.221505   31.106782
   48   H      1    0.98   0.00         0    0    0   0.126  -37.632006  -28.134243   32.338883
   49   N      3    2.80   0.00        -3    0    1  -0.226  -32.894463  -32.656357   27.909365
   50   C      4    3.50   0.00         3    0    0   0.034  -30.794977  -33.043751   26.208612
   51   C      3    2.80   0.00         2    0    1   0.170  -30.158139  -30.494510   25.002966
   52   C      4    3.50   0.00         3    0    0  -0.033  -31.581103  -35.092214   24.315106
   53   O      1    0.98   0.00         2    0    1  -0.371  -31.271188  -29.738620   23.105681
   54   C      3    2.95   0.00         2    0    1   0.044  -29.587442  -35.884009   22.446167
   55   C      3    2.97   0.00         2    0    1   0.032  -27.026863  -36.020070   22.808994
   56   N      3    2.88   0.00         3    0    1  -0.193  -30.067432  -36.774070   20.051884
   57   C      3    3.02   0.00         2    0    1   0.078  -27.858343  -37.433585   18.995527
   58   N      2    2.01   0.00         2    0    1  -0.187  -25.949719  -37.004617   20.605574
   59   H      1    0.97   0.01         0    0    0   0.145  -34.752063  -33.262959   27.480397
   60   H      1    0.98   0.00         0    0    0   0.072  -29.298314  -33.612559   27.195049
   61   H      1    0.98   0.00         0    0    0   0.072  -32.134793  -36.651238   25.284536
   62   H      1    0.98   0.00         0    0    0   0.072  -33.100443  -34.468605   23.326779
   63   H      1    0.98   0.00         0    0    0   0.139  -31.741730  -36.910131   19.233632
   64   H      1    0.98   0.00         0    0    0   0.077  -26.093338  -35.515513   24.354790
   65   H      1    0.98   0.00         0    0    0   0.075  -27.663701  -38.146012   17.255089
   66   N      3    2.80   0.00        -3    0    1  -0.189  -28.374238  -29.143356   26.142471
   67   C      4    3.50   0.00         3    0    0   0.029  -27.151585  -27.000407   24.929267
   68   C      3    2.80   0.00         2    0    1   0.168  -25.511303  -28.015190   22.776869
   69   C      4    3.50   0.00         3    0    0  -0.032  -25.660591  -25.477288   26.885134
   70   O      1    0.98   0.00         2    0    1  -0.374  -23.304103  -28.652028   23.126468
   71   C      3    2.95   0.00         2    0    1   0.044  -27.353786  -23.923933   28.563210
   72   C      3    2.96   0.00         2    0    1   0.034  -28.534864  -24.672264   30.745844
   73   N      3    2.89   0.00         3    0    1  -0.191  -28.022749  -21.444612   28.138022
   74   C      3    3.01   0.00         2    0    1   0.077  -29.545868  -20.705729   30.023969
   75   N      2    2.02   0.00         2    0    1  -0.194  -29.889798  -22.595455   31.651023
   76   H      1    0.97   0.00         0    0    0   0.136  -27.932042  -29.749958   27.966057
   77   H      1    0.98   0.00         0    0    0   0.073  -28.472504  -25.887358   24.186605
   78   H      1    0.98   0.00         0    0    0   0.071  -24.674154  -26.662146   27.973616
   79   H      1    0.98   0.00         0    0    0   0.071  -24.479512  -24.305657   25.991293
   80   H      1    0.98   0.00         0    0    0   0.134  -27.484177  -20.382586   26.699940
   81   H      1    0.98   0.00         0    0    0   0.073  -28.447937  -26.361679   31.537639
   82   H      1    0.98   0.00         0    0    0   0.070  -30.307428  -18.982299   30.180816
   83   N      3    2.80   0.00        -3    0    1  -0.183  -26.647028  -28.281641   20.546992
   84   C      4    3.50   0.00         3    0    0   0.034  -25.269418  -28.890133   18.258534
   85   C      3    2.80   0.00         2    0    1   0.167  -23.357015  -26.766081   17.786102
   86   C      4    3.50   0.00         3    0    0  -0.059  -27.144026  -29.228394   16.075900
   87   O      1    0.98   0.00         2    0    1  -0.375  -24.063772  -24.606124   17.277766
   88   H      1    0.97   0.00         0    0    0   0.136  -28.602895  -28.015190   20.598015
   89   H      1    0.98   0.00         0    0    0   0.070  -24.322665  -30.496400   18.506088
   90   H      1    0.98   0.00         0    0    0   0.070  -26.193494  -29.332329   14.450736
   91   H      1    0.98   0.00         0    0    0   0.070  -28.124794  -30.815764   16.340462
   92   H      1    0.98   0.00         0    0    0   0.070  -28.319436  -27.754408   16.032436
   93   N      3    2.80   0.00        -3    0    1  -0.184  -20.924937  -27.361345   18.044995
   94   C      4    3.50   0.00         3    0    0   0.033  -18.919938  -25.677599   17.239971
   95   C      3    2.80   0.00         2    0    1   0.173  -19.384811  -25.006746   14.458295
   96   C      4    3.50   0.00         3    0    0  -0.060  -16.370697  -26.996627   17.646263
   97   O      1    0.98   0.00         2    0    1  -0.377  -19.598350  -26.692382   12.863366
   98   H      1    0.97   0.00         0    0    0   0.136  -20.603684  -29.122569   18.867026
   99   H      1    0.98   0.00         0    0    0   0.069  -18.989858  -24.092118   18.250975
  100   H      1    0.98   0.00         0    0    0   0.070  -15.835905  -27.822438   16.038106
  101   H      1    0.98   0.00         0    0    0   0.070  -15.085684  -25.717283   18.162158
  102   H      1    0.98   0.00         0    0    0   0.070  -16.554001  -28.296759   18.999306
  103   N      3    2.80   0.00        -3    0    1  -0.203  -19.570004  -22.561440   13.874369
  104   C      4    3.50   0.00         3    0    0   0.028  -19.443392  -21.660041   11.258988
  105   C      3    2.80   0.00         2    0    1   0.140  -16.763760  -22.181605   10.342471
  106   C      4    3.49   0.00         3    0    0  -0.012  -20.269202  -18.884033   10.958522
  107   O      1    0.98   0.00         2    0    1  -0.391  -14.968521  -20.819113   10.901830
  108   C      4    3.50   0.00         3    0    0  -0.060  -23.160483  -18.744193   10.809233
  109   C      4    3.50   0.00         3    0    0  -0.060  -19.394259  -17.141706   13.109030
  110   H      1    0.97   0.00         0    0    0   0.130  -19.808109  -21.365244   15.414496
  111   H      1    0.98   0.00         0    0    0   0.058  -20.622581  -22.682383   10.229088
  112   H      1    0.98   0.00         0    0    0   0.051  -19.613467  -18.262313    9.320129
  113   H      1    0.98   0.00         0    0    0   0.053  -23.903146  -20.101017   11.888267
  114   H      1    0.98   0.00         0    0    0   0.053  -23.731181  -17.054778   11.423394
  115   H      1    0.98   0.00         0    0    0   0.053  -23.700945  -18.987968    9.019663
  116   H      1    0.98   0.00         0    0    0   0.053  -19.295993  -18.141371   14.703959
  117   H      1    0.98   0.00         0    0    0   0.053  -17.697285  -16.446286   12.678173
  118   H      1    0.98   0.00         0    0    0   0.053  -20.637699  -15.737639   13.301782
  119   N      3    2.79   0.00        -3    0    1  -0.138  -16.480302  -24.405813    9.216194
  120   C      4    3.50   0.00         3    0    0   0.003  -14.080349  -25.439493    8.418730
  121   C      3    2.79   0.00         2    0    1   0.170  -13.020213  -24.073221    6.128382
  122   O      1    0.98   0.00         2    0    1  -0.360  -14.424280  -23.228514    4.491879
  123   H      1    0.97   0.01         0    0    0   0.146  -18.211291  -25.379022    8.947853
  124   H      1    0.98   0.00         0    0    0   0.090  -12.819902  -25.322330    9.856811
  125   H      1    0.98   0.00         0    0    0   0.090  -14.288219  -27.297094    7.999211
  126   N      3    2.79   0.00        -3    0    1  -0.160  -10.508767  -24.101567    6.009329
  127   C      4    3.50   0.00         3    0    0   0.006   -9.059347  -23.997632    3.667958
  128   C      3    2.79   0.00         2    0    1   0.173   -8.883603  -21.344457    2.541682
  129   O      1    0.99   0.00         2    0    1  -0.356  -10.760101  -20.169047    1.918072
  130   H      1    0.97   0.01         0    0    0   0.153   -9.630044  -24.209281    7.800789
  131   H      1    0.98   0.00         0    0    0   0.092   -7.283004  -24.657146    3.991102
  132   H      1    0.98   0.00         0    0    0   0.092   -9.858701  -25.173042    2.373496
  133   N      3    2.79   0.00        -3    0    1  -0.164   -6.665064  -20.223849    2.246884
  134   C      4    3.50   0.00         3    0    0   0.005   -4.325583  -21.442722    1.477766
  135   C      3    2.80   0.00         2    0    1   0.174   -3.911733  -20.945724   -1.328477
  136   O      1    0.98   0.00         2    0    1  -0.353   -5.593589  -21.353905   -2.868604
  137   H      1    0.97   0.01         0    0    0   0.153   -6.736874  -18.239637    2.641837
  138   H      1    0.98   0.00         0    0    0   0.093   -2.881832  -20.732185    2.458534
  139   H      1    0.98   0.00         0    0    0   0.093   -4.444636  -23.300323    1.772563
  140   N      3    2.79   0.00        -3    0    1  -0.165   -1.610047  -20.138811   -1.931300
  141   C      4    3.50   0.00         3    0    0   0.005   -0.704868  -19.798661   -4.512666
  142   C      3    2.79   0.00         2    0    1   0.174   -1.445640  -17.239971   -5.631384
  143   O      1    0.99   0.00         2    0    1  -0.353   -3.499773  -16.287549   -5.202416
  144   H      1    0.97   0.01         0    0    0   0.153   -0.461093  -19.755197   -0.342040
  145   H      1    0.98   0.00         0    0    0   0.093    1.203756  -19.963067   -4.542902
  146   H      1    0.98   0.00         0    0    0   0.093   -1.411625  -21.191389   -5.621935
  147   N      3    2.79   0.00        -3    0    1  -0.165    0.166296  -15.966296   -7.052458
  148   C      4    3.50   0.00         3    0    0   0.005    2.501997  -16.793996   -8.242985
  149   C      3    2.79   0.00         2    0    1   0.174    2.738213  -15.459849  -10.794116
  150   O      1    0.98   0.00         2    0    1  -0.353    0.852266  -14.605693  -11.837244
  151   H      1    0.96   0.01         0    0    0   0.153   -0.462983  -14.002871   -7.298122
  152   H      1    0.98   0.00         0    0    0   0.093    3.970315  -16.332903   -7.162062
  153   H      1    0.98   0.00         0    0    0   0.093    2.458534  -18.655376   -8.516996
  154   N      3    2.79   0.00        -3    0    1  -0.165    5.055017  -15.357804  -11.778663
  155   C      4    3.50   0.00         3    0    0   0.005    5.678627  -14.375147  -14.297668
  156   C      3    2.79   0.00         2    0    1   0.174    6.043344  -11.500873  -14.288219
  157   O      1    0.99   0.00         2    0    1  -0.353    4.346370  -10.115704  -13.581462
  158   H      1    0.97   0.01         0    0    0   0.153    6.468533  -16.072121  -10.548451
  159   H      1    0.98   0.00         0    0    0   0.093    7.279225  -15.206626  -14.919388
  160   H      1    0.98   0.00         0    0    0   0.093    4.278340  -14.823012  -15.512762
  161   N      3    2.79   0.00        -3    0    1  -0.165    8.222198  -10.406722  -14.906160
  162   C      4    3.50   0.00         3    0    0   0.005   10.257433  -11.317570  -16.523765
  163   C      3    2.79   0.00         2    0    1   0.174    9.811458  -10.448296  -19.246861
  164   O      1    0.98   0.00         2    0    1  -0.353    7.972755  -11.228753  -20.416601
  165   H      1    0.96   0.01         0    0    0   0.153    8.388494   -8.551011  -13.999091
  166   H      1    0.98   0.00         0    0    0   0.093   11.912833  -10.631599  -15.915273
  167   H      1    0.98   0.00         0    0    0   0.093   10.314125  -13.209186  -16.476522
  168   N      3    2.79   0.00        -3    0    1  -0.164   11.563234   -8.913838  -20.218180
  169   C      4    3.50   0.00         3    0    0   0.003   11.674728   -8.035115  -22.843009
  170   C      3    2.79   0.00         2    0    1   0.173   10.896161   -5.260998  -23.071666
  171   O      1    0.99   0.00         2    0    1  -0.353    8.919507   -4.518335  -22.153259
  172   H      1    0.97   0.01         0    0    0   0.153   12.942734   -8.350700  -18.863246
  173   H      1    0.98   0.00         0    0    0   0.094   13.449181   -8.244875  -23.502524
  174   H      1    0.98   0.00         0    0    0   0.094   10.516326   -9.100921  -23.914484
  175   N      3    2.79   0.00        -3    0    1  -0.161   12.341801   -3.573472  -24.209281
  176   C      4    3.50   0.00         3    0    0   0.003   14.664275   -3.821026  -25.651142
  177   C      3    2.79   0.00         2    0    1   0.168   14.981749   -1.398397  -27.196938
  178   O      1    0.98   0.00         2    0    1  -0.352   13.101471   -0.226767  -27.890468
  179   H      1    0.96   0.01         0    0    0   0.152   11.527329   -1.649731  -23.942830
  180   H      1    0.98   0.00         0    0    0   0.095   16.125033   -4.011889  -24.492740
  181   H      1    0.98   0.00         0    0    0   0.095   14.547112   -5.285564  -26.815214
  182   N      3    2.79   0.00        -3    0    1  -0.147   17.340127   -0.655735  -27.616458
  183   C      4    3.49   0.00         3    0    0   0.035   18.405932    0.685971  -29.787753
  184   C      3    2.79   0.00         2    0    1   0.266   21.232963    0.990216  -29.239732
  185   C      4    3.50   0.00         3    0    0  -0.062   17.153044    3.257888  -30.260184
  186   O      1    0.98   0.00         2    0    1  -0.330   21.852793    1.540127  -27.021194
  187   O      1    0.98   0.00         2    0    1  -0.330   22.691831    0.491329  -31.019854
  188   H      1    0.96   0.01         0    0    0   0.159   18.572228   -1.179189  -26.038536
  189   H      1    0.98   0.00         0    0    0   0.103   18.203732   -0.364717  -31.316541
  190   H      1    0.98   0.00         0    0    0   0.102   18.137591    4.599593  -29.375793
  191   H      1    0.98   0.00         0    0    0   0.102   17.128478    3.603708  -32.114006
  192   H      1    0.98   0.00         0    0    0   0.102   15.389930    3.220093  -29.595001

molecular fragment  # atoms  topo charge
       1            19             0.000
       2            17             0.000
       3            12             0.000
       4            17             0.000
       5            17             0.000
       6            10            -0.000
       7            10             0.000
       8            16            -0.000
       9             7             0.000
      10             7             0.000
      11             7            -0.000
      12             7            -0.000
      13             7            -0.000
      14             7            -0.000
      15             7             0.000
      16             7            -0.000
      17             7            -0.000
      18            11             0.000


          #atoms :   192
          #bonds :   195

 bond atoms        type  in ring    R      R0    piBO    fqq  kbond(tot)  alp
 C  N     2    1      1    0     1.476   1.363 -99.000   1.047  -0.153   0.496
 C  C     3    2      1    0     1.508   1.333 -99.000   1.002  -0.160   0.475
 C  C     4    2      1    0     1.532   1.371 -99.000   1.033  -0.153   0.468
 O  C     5    3      2    0     1.220   1.031   0.858   1.047  -0.262   0.584
 C  C     6    4      1    0     1.506   1.341 -99.000   1.038  -0.166   0.475
 C  C     7    6      2    5     1.372   1.242   0.755   1.010  -0.273   0.491
 N  C     8    6      2    5     1.375   1.267   0.556   1.047  -0.250   0.524
 C  N     9    8      2    5     1.343   1.270   0.558   1.047  -0.250   0.524
 N  C    10    7      2    5     1.390   1.224   0.550   1.047  -0.239   0.519
 N  C    10    9      2    5     1.341   1.191   0.750   1.047  -0.278   0.519
 H  N    11    1      1    0     0.999   0.924 -99.000   1.047  -0.176   0.551
 H  C    12    2      1    0     0.989   0.977 -99.000   1.010  -0.163   0.482
 H  C    13    4      1    0     1.004   0.977 -99.000   1.043  -0.168   0.482
 H  C    14    4      1    0     1.003   0.977 -99.000   1.043  -0.168   0.482
 H  N    15    8      1    0     0.988   0.895 -99.000   1.047  -0.176   0.551
 H  C    16    7      1    0     0.994   0.960 -99.000   1.005  -0.175   0.490
 H  C    17    9      1    0     0.999   0.963 -99.000   1.000  -0.174   0.490
 H  N    18    1      1    0     0.999   0.924 -99.000   1.047  -0.176   0.551
 H  N    19    1      1    0     0.999   0.924 -99.000   1.047  -0.176   0.551
 N  C    20    3      2    0     1.325   1.265   0.500   1.047  -0.234   0.524
 C  N    21   20      1    0     1.454   1.327 -99.000   1.047  -0.153   0.496
 C  C    22   21      1    0     1.521   1.333 -99.000   1.001  -0.160   0.475
 C  C    23   21      1    0     1.540   1.371 -99.000   1.035  -0.154   0.468
 O  C    24   22      2    0     1.226   1.031   0.861   1.047  -0.262   0.584
 C  C    25   23      1    0     1.508   1.341 -99.000   1.039  -0.166   0.475
 C  C    26   25      2    5     1.367   1.242   0.755   1.008  -0.273   0.491
 N  C    27   25      2    5     1.375   1.267   0.555   1.047  -0.250   0.524
 C  N    28   27      2    5     1.345   1.270   0.559   1.047  -0.250   0.524
 N  C    29   26      2    5     1.396   1.224   0.550   1.047  -0.239   0.519
 N  C    29   28      2    5     1.345   1.191   0.749   1.047  -0.278   0.519
 H  N    30   20      1    0     1.049   0.890 -99.000   1.047  -0.176   0.551
 H  C    31   21      1    0     0.989   0.977 -99.000   1.005  -0.162   0.482
 H  C    32   23      1    0     1.005   0.977 -99.000   1.044  -0.168   0.482
 H  C    33   23      1    0     1.005   0.977 -99.000   1.044  -0.168   0.482
 H  N    34   27      1    0     0.988   0.894 -99.000   1.047  -0.176   0.551
 H  C    35   26      1    0     0.996   0.961 -99.000   1.003  -0.174   0.490
 H  C    36   28      1    0     1.000   0.963 -99.000   1.000  -0.174   0.490
 N  C    37   22      2    0     1.322   1.265   0.494   1.047  -0.233   0.524
 C  N    38   37      1    0     1.452   1.326 -99.000   1.046  -0.153   0.496
 C  C    39   38      1    0     1.528   1.333 -99.000   1.000  -0.160   0.475
 C  C    40   38      1    0     1.535   1.371 -99.000   1.035  -0.154   0.468
 O  C    41   39      2    0     1.229   1.032   0.851   1.047  -0.261   0.584
 C  C    42   40      1    0     1.530   1.332 -99.000   1.047  -0.168   0.475
 O  C    43   42      2    0     1.258   1.058   0.703   1.047  -0.236   0.584
 O  C    44   42      2    0     1.242   1.058   0.703   1.047  -0.236   0.584
 H  N    45   37      1    0     1.053   0.890 -99.000   1.047  -0.176   0.551
 H  C    46   38      1    0     0.996   0.977 -99.000   1.001  -0.161   0.482
 H  C    47   40      1    0     0.994   0.977 -99.000   1.046  -0.168   0.482
 H  C    48   40      1    0     0.994   0.977 -99.000   1.046  -0.168   0.482
 N  C    49   39      2    0     1.326   1.262   0.512   1.047  -0.236   0.524
 C  N    50   49      1    0     1.444   1.327 -99.000   1.047  -0.153   0.496
 C  C    51   50      1    0     1.530   1.333 -99.000   1.000  -0.160   0.475
 C  C    52   50      1    0     1.534   1.371 -99.000   1.036  -0.154   0.468
 O  C    53   51      2    0     1.231   1.031   0.856   1.047  -0.262   0.584
 C  C    54   52      1    0     1.506   1.341 -99.000   1.039  -0.166   0.475
 C  C    55   54      2    5     1.370   1.242   0.755   1.009  -0.273   0.491
 N  C    56   54      2    5     1.375   1.267   0.555   1.047  -0.250   0.524
 C  N    57   56      2    5     1.342   1.270   0.559   1.047  -0.250   0.524
 N  C    58   55      2    5     1.399   1.224   0.550   1.047  -0.239   0.519
 N  C    58   57      2    5     1.341   1.191   0.749   1.047  -0.278   0.519
 H  N    59   49      1    0     1.059   0.890 -99.000   1.047  -0.176   0.551
 H  C    60   50      1    0     0.995   0.977 -99.000   1.003  -0.162   0.482
 H  C    61   52      1    0     1.015   0.977 -99.000   1.044  -0.168   0.482
 H  C    62   52      1    0     1.014   0.977 -99.000   1.044  -0.168   0.482
 H  N    63   56      1    0     0.989   0.894 -99.000   1.047  -0.176   0.551
 H  C    64   55      1    0     0.992   0.960 -99.000   1.003  -0.174   0.490
 H  C    65   57      1    0     1.000   0.963 -99.000   1.000  -0.174   0.490
 N  C    66   51      2    0     1.329   1.263   0.504   1.047  -0.234   0.524
 C  N    67   66      1    0     1.455   1.326 -99.000   1.047  -0.153   0.496
 C  C    68   67      1    0     1.529   1.333 -99.000   1.000  -0.160   0.475
 C  C    69   67      1    0     1.531   1.371 -99.000   1.034  -0.154   0.468
 O  C    70   68      2    0     1.230   1.031   0.857   1.047  -0.262   0.584
 C  C    71   69      1    0     1.506   1.341 -99.000   1.038  -0.166   0.475
 C  C    72   71      2    5     1.372   1.242   0.755   1.008  -0.272   0.491
 N  C    73   71      2    5     1.377   1.267   0.556   1.047  -0.250   0.524
 C  N    74   73      2    5     1.341   1.270   0.559   1.047  -0.250   0.524
 N  C    75   72      2    5     1.397   1.224   0.550   1.047  -0.239   0.519
 N  C    75   74      2    5     1.332   1.191   0.750   1.047  -0.278   0.519
 H  N    76   66      1    0     1.044   0.890 -99.000   1.047  -0.176   0.551
 H  C    77   67      1    0     0.995   0.977 -99.000   1.004  -0.162   0.482
 H  C    78   69      1    0     0.999   0.977 -99.000   1.043  -0.168   0.482
 H  C    79   69      1    0     0.999   0.977 -99.000   1.043  -0.168   0.482
 H  N    80   73      1    0     0.988   0.895 -99.000   1.047  -0.176   0.551
 H  C    81   72      1    0     0.988   0.960 -99.000   1.003  -0.174   0.490
 H  C    82   74      1    0     1.001   0.963 -99.000   1.000  -0.174   0.490
 N  C    83   68      2    0     1.332   1.264   0.503   1.047  -0.234   0.524
 C  N    84   83      1    0     1.450   1.326 -99.000   1.047  -0.153   0.496
 C  C    85   84      1    0     1.533   1.333 -99.000   1.000  -0.160   0.475
 C  C    86   84      1    0     1.533   1.371 -99.000   1.042  -0.155   0.468
 O  C    87   85      2    0     1.232   1.031   0.857   1.047  -0.262   0.584
 H  N    88   83      1    0     1.045   0.890 -99.000   1.047  -0.176   0.551
 H  C    89   84      1    0     0.995   0.977 -99.000   1.004  -0.162   0.482
 H  C    90   86      1    0     0.998   0.977 -99.000   1.046  -0.169   0.482
 H  C    91   86      1    0     0.997   0.977 -99.000   1.046  -0.169   0.482
 H  C    92   86      1    0     0.998   0.977 -99.000   1.046  -0.169   0.482
 N  C    93   85      2    0     1.332   1.264   0.503   1.047  -0.234   0.524
 C  N    94   93      1    0     1.449   1.326 -99.000   1.047  -0.153   0.496
 C  C    95   94      1    0     1.534   1.333 -99.000   1.000  -0.160   0.475
 C  C    96   94      1    0     1.534   1.371 -99.000   1.042  -0.155   0.468
 O  C    97   95      2    0     1.233   1.031   0.856   1.047  -0.261   0.584
 H  N    98   93      1    0     1.042   0.890 -99.000   1.047  -0.176   0.551
 H  C    99   94      1    0     0.996   0.977 -99.000   1.004  -0.162   0.482
 H  C   100   96      1    0     0.998   0.977 -99.000   1.046  -0.169   0.482
 H  C   101   96      1    0     0.998   0.977 -99.000   1.046  -0.169   0.482
 H  C   102   96      1    0     0.998   0.977 -99.000   1.046  -0.169   0.482
 N  C   103   95      2    0     1.334   1.263   0.504   1.047  -0.235   0.524
 C  N   104  103      1    0     1.465   1.326 -99.000   1.047  -0.153   0.496
 C  C   105  104      1    0     1.524   1.333 -99.000   1.001  -0.160   0.475
 C  C   106  104      1    0     1.541   1.371 -99.000   1.028  -0.153   0.468
 O  C   107  105      2    0     1.229   1.030   0.860   1.047  -0.262   0.584
 C  C   108  106      1    0     1.534   1.371 -99.000   1.015  -0.151   0.468
 C  C   109  106      1    0     1.536   1.371 -99.000   1.015  -0.151   0.468
 H  N   110  103      1    0     1.040   0.890 -99.000   1.047  -0.176   0.551
 H  C   111  104      1    0     0.989   0.977 -99.000   1.007  -0.162   0.482
 H  C   112  106      1    0     0.990   0.977 -99.000   1.031  -0.166   0.482
 H  C   113  108      1    0     0.998   0.977 -99.000   1.045  -0.168   0.482
 H  C   114  108      1    0     0.998   0.977 -99.000   1.045  -0.168   0.482
 H  C   115  108      1    0     0.998   0.977 -99.000   1.045  -0.168   0.482
 H  C   116  109      1    0     0.997   0.977 -99.000   1.045  -0.168   0.482
 H  C   117  109      1    0     0.997   0.977 -99.000   1.045  -0.168   0.482
 H  C   118  109      1    0     0.998   0.977 -99.000   1.045  -0.168   0.482
 N  C   119  105      2    0     1.328   1.264   0.497   1.047  -0.233   0.524
 C  N   120  119      1    0     1.446   1.326 -99.000   1.028  -0.150   0.496
 C  C   121  120      1    0     1.519   1.333 -99.000   1.017  -0.163   0.475
 O  C   122  121      2    0     1.225   1.031   0.857   1.047  -0.262   0.584
 H  N   123  119      1    0     1.060   0.890 -99.000   1.047  -0.176   0.551
 H  C   124  120      1    0     1.014   0.978 -99.000   1.020  -0.164   0.482
 H  C   125  120      1    0     1.014   0.978 -99.000   1.020  -0.164   0.482
 N  C   126  121      2    0     1.331   1.263   0.502   1.047  -0.234   0.524
 C  N   127  126      1    0     1.458   1.326 -99.000   1.035  -0.151   0.496
 C  C   128  127      1    0     1.528   1.332 -99.000   1.012  -0.162   0.475
 O  C   129  128      2    0     1.217   1.032   0.857   1.047  -0.262   0.584
 H  N   130  126      1    0     1.057   0.890 -99.000   1.047  -0.176   0.551
 H  C   131  127      1    0     1.017   0.977 -99.000   1.017  -0.164   0.482
 H  C   132  127      1    0     1.017   0.977 -99.000   1.017  -0.164   0.482
 N  C   133  128      2    0     1.324   1.263   0.503   1.047  -0.234   0.524
 C  N   134  133      1    0     1.454   1.326 -99.000   1.032  -0.151   0.496
 C  C   135  134      1    0     1.524   1.333 -99.000   1.014  -0.162   0.475
 O  C   136  135      2    0     1.226   1.031   0.856   1.047  -0.262   0.584
 H  N   137  133      1    0     1.071   0.889 -99.000   1.047  -0.176   0.551
 H  C   138  134      1    0     0.997   0.977 -99.000   1.018  -0.164   0.482
 H  C   139  134      1    0     0.997   0.977 -99.000   1.018  -0.164   0.482
 N  C   140  135      2    0     1.329   1.263   0.503   1.047  -0.234   0.524
 C  N   141  140      1    0     1.459   1.326 -99.000   1.032  -0.151   0.496
 C  C   142  141      1    0     1.529   1.332 -99.000   1.014  -0.162   0.475
 O  C   143  142      2    0     1.219   1.032   0.856   1.047  -0.262   0.584
 H  N   144  140      1    0     1.057   0.889 -99.000   1.047  -0.176   0.551
 H  C   145  141      1    0     1.014   0.977 -99.000   1.018  -0.164   0.482
 H  C   146  141      1    0     1.014   0.977 -99.000   1.018  -0.164   0.482
 N  C   147  142      2    0     1.322   1.262   0.503   1.047  -0.234   0.524
 C  N   148  147      1    0     1.455   1.326 -99.000   1.032  -0.151   0.496
 C  C   149  148      1    0     1.529   1.332 -99.000   1.014  -0.162   0.475
 O  C   150  149      2    0     1.227   1.031   0.856   1.047  -0.262   0.584
 H  N   151  147      1    0     1.099   0.889 -99.000   1.047  -0.176   0.551
 H  C   152  148      1    0     0.995   0.977 -99.000   1.018  -0.164   0.482
 H  C   153  148      1    0     0.996   0.977 -99.000   1.018  -0.164   0.482
 N  C   154  149      2    0     1.333   1.263   0.503   1.047  -0.234   0.524
 C  N   155  154      1    0     1.468   1.326 -99.000   1.032  -0.151   0.496
 C  C   156  155      1    0     1.533   1.332 -99.000   1.014  -0.162   0.475
 O  C   157  156      2    0     1.218   1.032   0.856   1.047  -0.262   0.584
 H  N   158  154      1    0     1.061   0.889 -99.000   1.047  -0.176   0.551
 H  C   159  155      1    0     1.010   0.977 -99.000   1.018  -0.164   0.482
 H  C   160  155      1    0     1.009   0.977 -99.000   1.018  -0.164   0.482
 N  C   161  156      2    0     1.331   1.262   0.503   1.047  -0.234   0.524
 C  N   162  161      1    0     1.458   1.326 -99.000   1.032  -0.151   0.496
 C  C   163  162      1    0     1.531   1.332 -99.000   1.014  -0.162   0.475
 O  C   164  163      2    0     1.225   1.031   0.856   1.047  -0.262   0.584
 H  N   165  161      1    0     1.097   0.889 -99.000   1.047  -0.176   0.551
 H  C   166  162      1    0     1.001   0.977 -99.000   1.018  -0.164   0.482
 H  C   167  162      1    0     1.002   0.977 -99.000   1.018  -0.164   0.482
 N  C   168  163      2    0     1.335   1.263   0.503   1.047  -0.234   0.524
 C  N   169  168      1    0     1.466   1.326 -99.000   1.029  -0.150   0.496
 C  C   170  169      1    0     1.529   1.332 -99.000   1.018  -0.163   0.475
 O  C   171  170      2    0     1.218   1.032   0.857   1.047  -0.262   0.584
 H  N   172  168      1    0     1.066   0.889 -99.000   1.047  -0.176   0.551
 H  C   173  169      1    0     1.008   0.977 -99.000   1.020  -0.164   0.482
 H  C   174  169      1    0     1.008   0.977 -99.000   1.020  -0.164   0.482
 N  C   175  170      2    0     1.321   1.262   0.503   1.047  -0.234   0.524
 C  N   176  175      1    0     1.452   1.326 -99.000   1.029  -0.150   0.496
 C  C   177  176      1    0     1.530   1.332 -99.000   1.018  -0.163   0.475
 O  C   178  177      2    0     1.228   1.031   0.857   1.047  -0.262   0.584
 H  N   179  175      1    0     1.114   0.888 -99.000   1.047  -0.176   0.551
 H  C   180  176      1    0     0.992   0.977 -99.000   1.020  -0.164   0.482
 H  C   181  176      1    0     0.992   0.977 -99.000   1.020  -0.164   0.482
 N  C   182  177      2    0     1.327   1.263   0.501   1.047  -0.234   0.524
 C  N   183  182      1    0     1.464   1.325 -99.000   1.047  -0.153   0.496
 C  C   184  183      1    0     1.532   1.332 -99.000   1.000  -0.160   0.475
 C  C   185  183      1    0     1.534   1.371 -99.000   1.043  -0.155   0.468
 O  C   186  184      2    0     1.253   1.058   0.703   1.047  -0.236   0.584
 O  C   187  184      2    0     1.246   1.058   0.703   1.047  -0.236   0.584
 H  N   188  182      1    0     1.095   0.889 -99.000   1.047  -0.176   0.551
 H  C   189  183      1    0     0.987   0.977 -99.000   1.001  -0.161   0.482
 H  C   190  185      1    0     0.997   0.977 -99.000   1.047  -0.169   0.482
 H  C   191  185      1    0     0.998   0.977 -99.000   1.047  -0.169   0.482
 H  C   192  185      1    0     0.997   0.977 -99.000   1.047  -0.169   0.482
          #angl  :   340

 angle atoms        phi0    phi      FC  pi rings
    1   11    2   104.000 109.546   0.209 F   0
    1   18    2   104.000 109.517   0.209 F   0
    1   18   11   104.000 109.411   0.221 F   0
    1   19    2   104.000 109.533   0.209 F   0
    1   19   11   104.000 109.440   0.221 F   0
    1   19   18   104.000 109.380   0.221 F   0
    2    3    1   109.500 106.398   0.306 F   0
    2    4    1   109.500 111.352   0.306 F   0
    2    4    3   109.500 111.803   0.305 F   0
    2   12    1   109.500 108.071   0.253 F   0
    2   12    3   109.500 109.136   0.252 F   0
    2   12    4   109.500 109.943   0.251 F   0
    3    5    2   120.000 120.249   0.179 F   0
    3   20    2   120.000 115.203   0.243 F   0
    3   20    5   120.000 123.564   0.177 F   0
    4    6    2   109.500 113.388   0.304 F   0
    4   13    2   109.500 109.098   0.251 F   0
    4   13    6   109.500 108.152   0.251 F   0
    4   14    2   109.500 109.016   0.251 F   0
    4   14    6   109.500 108.158   0.251 F   0
    4   14   13   108.600 108.945   0.208 F   0
    6    7    4   120.000 127.735   0.244 F   0
    6    8    4   120.000 125.200   0.245 F   0
    6    8    7   109.000 107.066   0.265 F   5
    7   10    6   109.000 107.799   0.265 F   5
    7   16    6   120.000 126.162   0.202 F   0
    7   16   10   120.000 126.039   0.203 F   0
    8    9    6   113.000 108.033   0.076 F   5
    8   15    6   113.000 126.542   0.174 F   0
    8   15    9   113.000 125.425   0.173 F   0
    9   10    8   109.000 110.164   0.264 F   5
    9   17    8   120.000 124.897   0.202 F   0
    9   17   10   120.000 124.939   0.202 F   0
   10    9    7   105.000 106.863   0.284 F   5
   20   21    3   115.000 122.932   0.409 F   0
   20   30    3   115.000 114.199   0.335 F   0
   20   30   21   104.000 122.868   0.182 F   0
   21   22   20   109.500 106.005   0.306 F   0
   21   23   20   109.500 110.445   0.306 F   0
   21   23   22   109.500 113.618   0.305 F   0
   21   31   20   109.500 108.877   0.253 F   0
   21   31   22   109.500 108.494   0.252 F   0
   21   31   23   109.500 109.263   0.251 F   0
   22   24   21   120.000 120.986   0.180 F   0
   22   37   21   120.000 116.551   0.245 F   0
   22   37   24   120.000 122.177   0.179 F   0
   23   25   21   109.500 113.967   0.304 F   0
   23   32   21   109.500 108.877   0.251 F   0
   23   32   25   109.500 108.228   0.251 F   0
   23   33   21   109.500 108.814   0.251 F   0
   23   33   25   109.500 108.203   0.251 F   0
   23   33   32   108.600 108.634   0.208 F   0
   25   26   23   120.000 125.921   0.244 F   0
   25   27   23   120.000 126.997   0.245 F   0
   25   27   26   109.000 107.081   0.265 F   5
   26   29   25   109.000 108.226   0.265 F   5
   26   35   25   120.000 126.227   0.202 F   0
   26   35   29   120.000 125.547   0.203 F   0
   27   28   25   113.000 107.971   0.076 F   5
   27   34   25   113.000 126.632   0.174 F   0
   27   34   28   113.000 125.397   0.173 F   0
   28   29   27   109.000 110.400   0.264 F   5
   28   36   27   120.000 124.843   0.202 F   0
   28   36   29   120.000 124.757   0.202 F   0
   29   28   26   105.000 106.180   0.285 F   5
   37   38   22   115.000 123.510   0.412 F   0
   37   45   22   115.000 113.922   0.338 F   0
   37   45   38   104.000 122.568   0.182 F   0
   38   39   37   109.500 107.949   0.307 F   0
   38   40   37   109.500 111.977   0.306 F   0
   38   40   39   109.500 115.388   0.305 F   0
   38   46   37   109.500 107.649   0.253 F   0
   38   46   39   109.500 106.897   0.253 F   0
   38   46   40   109.500 106.603   0.252 F   0
   39   41   38   120.000 124.392   0.178 F   0
   39   49   38   120.000 113.464   0.241 F   0
   39   49   41   120.000 121.971   0.174 F   0
   40   42   38   109.500 113.537   0.303 F   0
   40   47   38   109.500 108.028   0.251 F   0
   40   47   42   109.500 108.449   0.250 F   0
   40   48   38   109.500 108.071   0.251 F   0
   40   48   42   109.500 108.498   0.250 F   0
   40   48   47   108.600 110.249   0.208 F   0
   42   43   40   120.000 116.965   0.175 F   0
   42   44   40   120.000 118.110   0.175 F   0
   42   44   43   122.000 124.923   0.253 F   0
   49   50   39   115.000 124.142   0.403 F   0
   49   59   39   115.000 113.342   0.328 F   0
   49   59   50   104.000 122.516   0.180 F   0
   50   51   49   109.500 107.706   0.306 F   0
   50   52   49   109.500 107.384   0.305 F   0
   50   52   51   109.500 114.239   0.305 F   0
   50   60   49   109.500 109.162   0.252 F   0
   50   60   51   109.500 108.068   0.252 F   0
   50   60   52   109.500 110.169   0.251 F   0
   51   53   50   120.000 121.422   0.179 F   0
   51   66   50   120.000 116.212   0.243 F   0
   51   66   53   120.000 122.359   0.176 F   0
   52   54   50   109.500 115.837   0.304 F   0
   52   61   50   109.500 108.825   0.251 F   0
   52   61   54   109.500 107.949   0.251 F   0
   52   62   50   109.500 108.779   0.251 F   0
   52   62   54   109.500 107.895   0.251 F   0
   52   62   61   108.600 107.236   0.208 F   0
   54   55   52   120.000 127.984   0.244 F   0
   54   56   52   120.000 124.822   0.245 F   0
   54   56   55   109.000 107.078   0.265 F   5
   55   58   54   109.000 107.803   0.266 F   5
   55   64   54   120.000 126.416   0.202 F   0
   55   64   58   120.000 125.781   0.203 F   0
   56   57   54   113.000 108.175   0.076 F   5
   56   63   54   113.000 126.429   0.174 F   0
   56   63   57   113.000 125.396   0.173 F   0
   57   58   56   109.000 110.334   0.264 F   5
   57   65   56   120.000 124.830   0.202 F   0
   57   65   58   120.000 124.836   0.202 F   0
   58   57   55   105.000 106.610   0.285 F   5
   66   67   51   115.000 122.347   0.408 F   0
   66   76   51   115.000 114.418   0.333 F   0
   66   76   67   104.000 123.236   0.181 F   0
   67   68   66   109.500 107.899   0.306 F   0
   67   69   66   109.500 109.953   0.306 F   0
   67   69   68   109.500 113.320   0.305 F   0
   67   77   66   109.500 108.862   0.253 F   0
   67   77   68   109.500 108.204   0.252 F   0
   67   77   69   109.500 108.510   0.251 F   0
   68   70   67   120.000 121.552   0.178 F   0
   68   83   67   120.000 116.163   0.243 F   0
   68   83   70   120.000 122.206   0.176 F   0
   69   71   67   109.500 112.302   0.304 F   0
   69   78   67   109.500 109.195   0.251 F   0
   69   78   71   109.500 108.279   0.251 F   0
   69   79   67   109.500 109.207   0.251 F   0
   69   79   71   109.500 108.216   0.251 F   0
   69   79   78   108.600 109.608   0.208 F   0
   71   72   69   120.000 127.600   0.244 F   0
   71   73   69   120.000 125.212   0.245 F   0
   71   73   72   109.000 107.183   0.265 F   5
   72   75   71   109.000 107.186   0.265 F   5
   72   81   71   120.000 126.647   0.202 F   0
   72   81   75   120.000 126.167   0.203 F   0
   73   74   71   113.000 108.096   0.076 F   5
   73   80   71   113.000 126.404   0.174 F   0
   73   80   74   113.000 125.500   0.173 F   0
   74   75   73   109.000 110.136   0.264 F   5
   74   82   73   120.000 124.720   0.202 F   0
   74   82   75   120.000 125.144   0.202 F   0
   75   74   72   105.000 107.388   0.284 F   5
   83   84   68   115.000 122.463   0.408 F   0
   83   88   68   115.000 114.194   0.333 F   0
   83   88   84   104.000 123.343   0.181 F   0
   84   85   83   109.500 107.778   0.306 F   0
   84   86   83   109.500 109.263   0.305 F   0
   84   86   85   109.500 112.950   0.305 F   0
   84   89   83   109.500 109.442   0.253 F   0
   84   89   85   109.500 108.381   0.252 F   0
   84   89   86   109.500 108.975   0.251 F   0
   85   87   84   120.000 121.018   0.179 F   0
   85   93   84   120.000 116.594   0.243 F   0
   85   93   87   120.000 122.344   0.176 F   0
   86   90   84   109.500 109.244   0.250 F   0
   86   91   84   109.500 109.229   0.250 F   0
   86   91   90   108.600 109.689   0.208 F   0
   86   92   84   109.500 109.234   0.250 F   0
   86   92   90   108.600 109.720   0.208 F   0
   86   92   91   108.600 109.708   0.208 F   0
   93   94   85   115.000 122.116   0.408 F   0
   93   98   85   115.000 114.324   0.333 F   0
   93   98   94   104.000 123.561   0.181 F   0
   94   95   93   109.500 107.871   0.307 F   0
   94   96   93   109.500 108.833   0.305 F   0
   94   96   95   109.500 112.383   0.305 F   0
   94   99   93   109.500 109.440   0.253 F   0
   94   99   95   109.500 108.337   0.252 F   0
   94   99   96   109.500 109.923   0.251 F   0
   95   97   94   120.000 120.267   0.178 F   0
   95  103   94   120.000 117.292   0.242 F   0
   95  103   97   120.000 122.437   0.176 F   0
   96  100   94   109.500 109.221   0.250 F   0
   96  101   94   109.500 109.207   0.250 F   0
   96  101  100   108.600 109.714   0.208 F   0
   96  102   94   109.500 109.199   0.250 F   0
   96  102  100   108.600 109.736   0.208 F   0
   96  102  101   108.600 109.746   0.208 F   0
  103  104   95   115.000 122.083   0.407 F   0
  103  110   95   115.000 114.705   0.332 F   0
  103  110  104   104.000 123.212   0.181 F   0
  104  105  103   109.500 106.510   0.306 F   0
  104  106  103   109.500 113.254   0.306 F   0
  104  106  105   109.500 113.812   0.305 F   0
  104  111  103   109.500 108.263   0.253 F   0
  104  111  105   109.500 108.210   0.252 F   0
  104  111  106   109.500 106.593   0.251 F   0
  105  107  104   120.000 122.444   0.179 F   0
  105  119  104   120.000 114.113   0.244 F   0
  105  119  107   120.000 122.745   0.178 F   0
  106  108  104   109.500 109.525   0.304 F   0
  106  109  104   109.500 114.224   0.304 F   0
  106  109  108   109.500 108.051   0.305 F   0
  106  112  104   109.500 107.924   0.251 F   0
  106  112  108   109.500 106.766   0.251 F   0
  106  112  109   109.500 110.099   0.251 F   0
  108  113  106   109.500 109.185   0.251 F   0
  108  114  106   109.500 109.165   0.251 F   0
  108  114  113   108.600 109.814   0.208 F   0
  108  115  106   109.500 109.185   0.251 F   0
  108  115  113   108.600 109.706   0.208 F   0
  108  115  114   108.600 109.767   0.208 F   0
  109  116  106   109.500 108.921   0.251 F   0
  109  117  106   109.500 108.884   0.251 F   0
  109  117  116   108.600 110.020   0.208 F   0
  109  118  106   109.500 108.902   0.251 F   0
  109  118  116   108.600 110.050   0.208 F   0
  109  118  117   108.600 110.033   0.208 F   0
  119  120  105   115.000 124.446   0.412 F   0
  119  123  105   115.000 113.143   0.336 F   0
  119  123  120   104.000 122.410   0.182 F   0
  120  121  119   109.500 112.168   0.307 F   0
  120  124  119   109.500 109.614   0.253 F   0
  120  124  121   109.500 109.081   0.251 F   0
  120  125  119   109.500 109.602   0.253 F   0
  120  125  121   109.500 109.084   0.251 F   0
  120  125  124   108.600 107.161   0.209 F   0
  121  122  120   120.000 120.907   0.178 F   0
  121  126  120   120.000 113.665   0.243 F   0
  121  126  122   120.000 125.185   0.177 F   0
  126  127  121   115.000 124.413   0.410 F   0
  126  130  121   115.000 113.415   0.334 F   0
  126  130  127   104.000 122.172   0.182 F   0
  127  128  126   109.500 113.457   0.307 F   0
  127  131  126   109.500 109.287   0.253 F   0
  127  131  128   109.500 108.940   0.252 F   0
  127  132  126   109.500 109.289   0.253 F   0
  127  132  128   109.500 108.931   0.252 F   0
  127  132  131   108.600 106.718   0.209 F   0
  128  129  127   120.000 121.706   0.178 F   0
  128  133  127   120.000 120.747   0.243 F   0
  128  133  129   120.000 117.539   0.177 F   0
  133  134  128   115.000 126.089   0.409 F   0
  133  137  128   115.000 112.607   0.334 F   0
  133  137  134   104.000 121.304   0.182 F   0
  134  135  133   109.500 108.575   0.307 F   0
  134  138  133   109.500 109.838   0.253 F   0
  134  138  135   109.500 109.389   0.251 F   0
  134  139  133   109.500 109.856   0.253 F   0
  134  139  135   109.500 109.367   0.251 F   0
  134  139  138   108.600 109.794   0.209 F   0
  135  136  134   120.000 120.869   0.178 F   0
  135  140  134   120.000 114.891   0.243 F   0
  135  140  136   120.000 124.205   0.177 F   0
  140  141  135   115.000 124.413   0.409 F   0
  140  144  135   115.000 113.427   0.334 F   0
  140  144  141   104.000 122.160   0.182 F   0
  141  142  140   109.500 112.811   0.307 F   0
  141  145  140   109.500 109.348   0.253 F   0
  141  145  142   109.500 108.984   0.251 F   0
  141  146  140   109.500 109.354   0.253 F   0
  141  146  142   109.500 108.969   0.251 F   0
  141  146  145   108.600 107.218   0.209 F   0
  142  143  141   120.000 121.499   0.178 F   0
  142  147  141   120.000 120.423   0.243 F   0
  142  147  143   120.000 118.057   0.177 F   0
  147  148  142   115.000 129.873   0.409 F   0
  147  151  142   115.000 110.725   0.333 F   0
  147  151  148   104.000 119.403   0.182 F   0
  148  149  147   109.500 108.233   0.307 F   0
  148  152  147   109.500 109.914   0.253 F   0
  148  152  149   109.500 109.300   0.251 F   0
  148  153  147   109.500 109.951   0.253 F   0
  148  153  149   109.500 109.276   0.251 F   0
  148  153  152   108.600 110.134   0.209 F   0
  149  150  148   120.000 120.068   0.178 F   0
  149  154  148   120.000 116.043   0.243 F   0
  149  154  150   120.000 123.871   0.177 F   0
  154  155  149   115.000 125.153   0.409 F   0
  154  158  149   115.000 113.205   0.333 F   0
  154  158  155   104.000 121.642   0.182 F   0
  155  156  154   109.500 112.126   0.307 F   0
  155  159  154   109.500 109.271   0.253 F   0
  155  159  156   109.500 109.136   0.251 F   0
  155  160  154   109.500 109.280   0.253 F   0
  155  160  156   109.500 109.113   0.251 F   0
  155  160  159   108.600 107.818   0.209 F   0
  156  157  155   120.000 120.345   0.178 F   0
  156  161  155   120.000 122.669   0.243 F   0
  156  161  157   120.000 116.892   0.177 F   0
  161  162  156   115.000 129.825   0.409 F   0
  161  165  156   115.000 110.581   0.333 F   0
  161  165  162   104.000 119.594   0.182 F   0
  162  163  161   109.500 109.845   0.307 F   0
  162  166  161   109.500 109.732   0.253 F   0
  162  166  163   109.500 109.183   0.251 F   0
  162  167  161   109.500 109.747   0.253 F   0
  162  167  163   109.500 109.168   0.251 F   0
  162  167  166   108.600 109.147   0.209 F   0
  163  164  162   120.000 119.788   0.178 F   0
  163  168  162   120.000 115.979   0.243 F   0
  163  168  164   120.000 124.193   0.177 F   0
  168  169  163   115.000 125.844   0.409 F   0
  168  172  163   115.000 112.744   0.334 F   0
  168  172  169   104.000 121.412   0.182 F   0
  169  170  168   109.500 111.627   0.307 F   0
  169  173  168   109.500 109.308   0.253 F   0
  169  173  170   109.500 109.224   0.251 F   0
  169  174  168   109.500 109.337   0.253 F   0
  169  174  170   109.500 109.197   0.251 F   0
  169  174  173   108.600 108.076   0.209 F   0
  170  171  169   120.000 120.613   0.178 F   0
  170  175  169   120.000 121.929   0.243 F   0
  170  175  171   120.000 117.442   0.177 F   0
  175  176  170   115.000 131.944   0.410 F   0
  175  179  170   115.000 109.626   0.334 F   0
  175  179  176   104.000 118.430   0.182 F   0
  176  177  175   109.500 107.349   0.307 F   0
  176  180  175   109.500 110.121   0.253 F   0
  176  180  177   109.500 109.282   0.251 F   0
  176  181  175   109.500 110.108   0.253 F   0
  176  181  177   109.500 109.239   0.251 F   0
  176  181  180   108.600 110.671   0.209 F   0
  177  178  176   120.000 119.583   0.178 F   0
  177  182  176   120.000 116.157   0.243 F   0
  177  182  178   120.000 124.211   0.177 F   0
  182  183  177   115.000 129.592   0.409 F   0
  182  188  177   115.000 110.944   0.335 F   0
  182  188  183   104.000 119.464   0.182 F   0
  183  184  182   109.500 106.176   0.307 F   0
  183  185  182   109.500 113.058   0.305 F   0
  183  185  184   109.500 111.069   0.305 F   0
  183  189  182   109.500 109.163   0.253 F   0
  183  189  184   109.500 108.663   0.253 F   0
  183  189  185   109.500 108.610   0.251 F   0
  184  186  183   120.000 117.207   0.176 F   0
  184  187  183   120.000 116.070   0.176 F   0
  184  187  186   122.000 126.525   0.252 F   0
  185  190  183   109.500 109.226   0.250 F   0
  185  191  183   109.500 109.173   0.250 F   0
  185  191  190   108.600 109.727   0.207 F   0
  185  192  183   109.500 109.202   0.250 F   0
  185  192  190   108.600 109.716   0.207 F   0
  185  192  191   108.600 109.779   0.207 F   0
 torsion atoms        nrot   rings    phi0    phi      FC
    2    1    3   11   3      0     180.000 173.184   0.131
    2    1    3   18   3      0     180.000  53.183   0.131
    2    1    3   19   3      0     180.000  66.771   0.131
    2    1    4   11   3      0     180.000  64.761   0.126
    2    1    4   18   3      0     180.000 175.239   0.126
    2    1    4   19   3      0     180.000  55.285   0.126
    2    1   12   11   3      0     180.000  56.088   0.187
    2    1   12   18   3      0     180.000  63.912   0.187
    2    1   12   19   3      0     180.000 176.134   0.187
    3    2    5    1   3      0     180.000  79.275   0.031
    3    2    5    4   3      0     180.000  42.494   0.077
    3    2    5   12   3      0     180.000 164.341   0.115
    3    2   20    1   3      0     180.000  89.774   0.020
    3    2   20    4   3      0     180.000 148.457   0.048
    3    2   20   12   3      0     180.000  26.610   0.072
    4    2    6    1   3      0     180.000  52.341   0.039
    4    2    6    3   3      0     180.000 171.213   0.100
    4    2    6   12   3      0     180.000  67.404   0.142
    4    2   13    1   3      0     180.000  68.252   0.056
    4    2   13    3   3      0     180.000  50.619   0.142
    4    2   13   12   3      0     180.000 172.002   0.203
    4    2   14    1   3      0     180.000 172.884   0.056
    4    2   14    3   3      0     180.000  68.244   0.142
    4    2   14   12   3      0     180.000  53.138   0.203
    6    4    7    2   3      0     180.000  26.622   0.046
    6    4    7   13   3      0     180.000 147.749   0.068
    6    4    7   14   3      0     180.000  94.405   0.068
    6    4    8    2   3      0     180.000 153.418   0.037
    6    4    8   13   3      0     180.000  32.291   0.056
    6    4    8   14   3      0     180.000  85.555   0.056
    7    6   10    4   2      5       0.000 177.748   0.728
    7    6   10    8   2      5       0.000   2.287   0.618
    7    6   16    4   2      5       0.000   2.202   1.203
    7    6   16    8   2      5       0.000 177.763   1.020
    8    6    9    4   2      5       0.000 179.159   0.577
    8    6    9    7   2      5       0.000   0.875   0.601
    8    6   15    4   2      5       0.000   0.860   0.822
    8    6   15    7   2      5       0.000 179.106   0.856
    9    8   10    6   2      5       0.000   0.941   0.588
    9    8   10   15   2      5       0.000 179.078   0.839
    9    8   17    6   2      5       0.000 179.154   0.972
    9    8   17   15   2      5       0.000   0.827   1.386
   10    7    9    6   2      5       0.000   2.849   0.589
   10    7    9   16   2      5       0.000 177.201   0.839
   10    9    7    8   2      5       0.000   2.345   0.711
   10    9    7   17   2      5       0.000 177.750   1.243
   20    3   21    2   2      0     180.000 173.118   0.583
   20    3   21    5   2      0     180.000   4.476   0.790
   20    3   30    2   2      0     180.000   6.881   0.865
   20    3   30    5   2      0     180.000 175.522   1.172
   21   20   22    3   3      0     180.000 118.676   0.023
   21   20   22   30   3      0     180.000  61.325   0.032
   21   20   23    3   3      0     180.000 117.837   0.022
   21   20   23   30   3      0     180.000  62.162   0.031
   21   20   31    3   3      0     180.000   2.135   0.032
   21   20   31   30   3      0     180.000 177.867   0.046
   22   21   24   20   3      0     180.000  97.542   0.066
   22   21   24   23   3      0     180.000  23.927   0.078
   22   21   24   31   3      0     180.000 145.659   0.116
   22   21   37   20   3      0     180.000  76.450   0.041
   22   21   37   23   3      0     180.000 162.081   0.049
   22   21   37   31   3      0     180.000  40.350   0.072
   23   21   25   20   3      0     180.000  53.579   0.082
   23   21   25   22   3      0     180.000 172.538   0.100
   23   21   25   31   3      0     180.000  66.160   0.143
   23   21   32   20   3      0     180.000  67.337   0.116
   23   21   32   22   3      0     180.000  51.621   0.143
   23   21   32   31   3      0     180.000 172.924   0.203
   23   21   33   20   3      0     180.000 174.418   0.116
   23   21   33   22   3      0     180.000  66.624   0.143
   23   21   33   31   3      0     180.000  54.679   0.203
   25   23   26   21   3      0     180.000  87.494   0.046
   25   23   26   32   3      0     180.000  33.784   0.068
   25   23   26   33   3      0     180.000 151.328   0.068
   25   23   27   21   3      0     180.000  92.021   0.038
   25   23   27   32   3      0     180.000 146.702   0.056
   25   23   27   33   3      0     180.000  29.158   0.056
   26   25   29   23   2      5       0.000 176.568   0.730
   26   25   29   27   2      5       0.000   3.027   0.619
   26   25   35   23   2      5       0.000   3.453   1.206
   26   25   35   27   2      5       0.000 176.953   1.023
   27   25   28   23   2      5       0.000 178.558   0.582
   27   25   28   26   2      5       0.000   1.031   0.606
   27   25   34   23   2      5       0.000   1.406   0.830
   27   25   34   26   2      5       0.000 179.006   0.864
   28   27   29   25   2      5       0.000   1.453   0.592
   28   27   29   34   2      5       0.000 178.511   0.844
   28   27   36   25   2      5       0.000 178.445   0.979
   28   27   36   34   2      5       0.000   1.591   1.395
   29   26   28   25   2      5       0.000   3.870   0.585
   29   26   28   35   2      5       0.000 176.110   0.834
   29   28   26   27   2      5       0.000   3.275   0.705
   29   28   26   36   2      5       0.000 176.623   1.234
   37   22   38   21   2      0     180.000 169.841   0.513
   37   22   38   24   2      0     180.000  16.245   0.696
   37   22   45   21   2      0     180.000  10.181   0.762
   37   22   45   24   2      0     180.000 163.733   1.032
   38   37   39   22   3      0     180.000  81.863   0.022
   38   37   39   45   3      0     180.000  98.161   0.032
   38   37   40   22   3      0     180.000 150.059   0.021
   38   37   40   45   3      0     180.000  29.916   0.030
   38   37   46   22   3      0     180.000  33.204   0.032
   38   37   46   45   3      0     180.000 146.772   0.045
   39   38   41   37   3      0     180.000  69.516   0.069
   39   38   41   40   3      0     180.000  56.582   0.081
   39   38   41   46   3      0     180.000 174.923   0.121
   39   38   49   37   3      0     180.000 105.765   0.043
   39   38   49   40   3      0     180.000 128.137   0.051
   39   38   49   46   3      0     180.000   9.796   0.076
   40   38   42   37   3      0     180.000  37.275   0.082
   40   38   42   39   3      0     180.000  86.737   0.100
   40   38   42   46   3      0     180.000 154.759   0.143
   40   38   47   37   3      0     180.000 157.590   0.116
   40   38   47   39   3      0     180.000  33.578   0.143
   40   38   47   46   3      0     180.000  84.926   0.203
   40   38   48   37   3      0     180.000  83.132   0.116
   40   38   48   39   3      0     180.000 152.856   0.143
   40   38   48   46   3      0     180.000  34.352   0.203
   42   40   43   38   3      0     180.000  67.899   0.064
   42   40   43   47   3      0     180.000 172.024   0.095
   42   40   43   48   3      0     180.000  52.267   0.095
   42   40   44   38   3      0     180.000 111.556   0.064
   42   40   44   47   3      0     180.000   8.521   0.095
   42   40   44   48   3      0     180.000 128.278   0.095
   49   39   50   38   2      0     180.000 173.865   0.739
   49   39   50   41   2      0     180.000  10.726   1.002
   49   39   59   38   2      0     180.000   6.165   1.097
   49   39   59   41   2      0     180.000 169.244   1.487
   50   49   51   39   3      0     180.000  74.213   0.023
   50   49   51   59   3      0     180.000 105.820   0.033
   50   49   52   39   3      0     180.000 162.315   0.022
   50   49   52   59   3      0     180.000  17.652   0.032
   50   49   60   39   3      0     180.000  42.891   0.033
   50   49   60   59   3      0     180.000 137.076   0.047
   51   50   53   49   3      0     180.000  85.449   0.068
   51   50   53   52   3      0     180.000  33.739   0.080
   51   50   53   60   3      0     180.000 156.738   0.118
   51   50   66   49   3      0     180.000  93.553   0.042
   51   50   66   52   3      0     180.000 147.259   0.050
   51   50   66   60   3      0     180.000  24.260   0.074
   52   50   54   49   3      0     180.000 176.789   0.082
   52   50   54   51   3      0     180.000  63.840   0.100
   52   50   54   60   3      0     180.000  58.012   0.143
   52   50   61   49   3      0     180.000  54.998   0.116
   52   50   61   51   3      0     180.000 174.369   0.143
   52   50   61   60   3      0     180.000  63.779   0.204
   52   50   62   49   3      0     180.000  61.526   0.116
   52   50   62   51   3      0     180.000  57.844   0.143
   52   50   62   60   3      0     180.000 179.696   0.204
   54   52   55   50   3      0     180.000  33.610   0.046
   54   52   55   61   3      0     180.000  88.647   0.068
   54   52   55   62   3      0     180.000 155.765   0.068
   54   52   56   50   3      0     180.000 150.826   0.038
   54   52   56   61   3      0     180.000  86.917   0.056
   54   52   56   62   3      0     180.000  28.671   0.056
   55   54   58   52   2      5       0.000 176.191   0.730
   55   54   58   56   2      5       0.000   0.001   0.619
   55   54   64   52   2      5       0.000   3.732   1.206
   55   54   64   56   2      5       0.000 179.924   1.023
   56   54   57   52   2      5       0.000 176.274   0.583
   56   54   57   55   2      5       0.000   0.070   0.607
   56   54   63   52   2      5       0.000   3.785   0.831
   56   54   63   55   2      5       0.000 179.871   0.865
   57   56   58   54   2      5       0.000   0.117   0.593
   57   56   58   63   2      5       0.000 179.825   0.845
   57   56   65   54   2      5       0.000 179.811   0.980
   57   56   65   63   2      5       0.000   0.247   1.397
   58   55   57   54   2      5       0.000   0.069   0.584
   58   55   57   64   2      5       0.000 179.855   0.833
   58   57   55   56   2      5       0.000   0.114   0.705
   58   57   55   65   2      5       0.000 179.814   1.233
   66   51   67   50   2      0     180.000 165.247   0.629
   66   51   67   53   2      0     180.000  15.761   0.853
   66   51   76   50   2      0     180.000  14.731   0.934
   66   51   76   53   2      0     180.000 164.261   1.266
   67   66   68   51   3      0     180.000  68.999   0.023
   67   66   68   76   3      0     180.000 110.978   0.033
   67   66   69   51   3      0     180.000 166.958   0.022
   67   66   69   76   3      0     180.000  13.066   0.031
   67   66   77   51   3      0     180.000  48.212   0.033
   67   66   77   76   3      0     180.000 131.812   0.046
   68   67   70   66   3      0     180.000  88.699   0.067
   68   67   70   69   3      0     180.000  33.289   0.079
   68   67   70   77   3      0     180.000 153.666   0.117
   68   67   83   66   3      0     180.000  88.139   0.042
   68   67   83   69   3      0     180.000 149.874   0.049
   68   67   83   77   3      0     180.000  29.496   0.073
   69   67   71   66   3      0     180.000  74.742   0.081
   69   67   71   68   3      0     180.000 164.423   0.100
   69   67   71   77   3      0     180.000  44.219   0.143
   69   67   78   66   3      0     180.000  45.373   0.116
   69   67   78   68   3      0     180.000  75.461   0.143
   69   67   78   77   3      0     180.000 164.335   0.203
   69   67   79   66   3      0     180.000 165.212   0.116
   69   67   79   68   3      0     180.000  44.378   0.143
   69   67   79   77   3      0     180.000  75.826   0.203
   71   69   72   67   3      0     180.000  86.161   0.046
   71   69   72   78   3      0     180.000  34.485   0.068
   71   69   72   79   3      0     180.000 153.221   0.068
   71   69   73   67   3      0     180.000  93.018   0.037
   71   69   73   78   3      0     180.000 146.336   0.056
   71   69   73   79   3      0     180.000  27.601   0.056
   72   71   75   69   2      5       0.000 179.723   0.730
   72   71   75   73   2      5       0.000   0.980   0.620
   72   71   81   69   2      5       0.000   0.231   1.207
   72   71   81   73   2      5       0.000 179.066   1.024
   73   71   74   69   2      5       0.000 179.905   0.582
   73   71   74   72   2      5       0.000   0.586   0.606
   73   71   80   69   2      5       0.000   0.066   0.830
   73   71   80   72   2      5       0.000 179.385   0.864
   74   73   75   71   2      5       0.000   0.061   0.590
   74   73   75   80   2      5       0.000 179.967   0.841
   74   73   82   71   2      5       0.000 179.971   0.975
   74   73   82   80   2      5       0.000   0.057   1.389
   75   72   74   71   2      5       0.000   1.023   0.588
   75   72   74   81   2      5       0.000 179.023   0.838
   75   74   72   73   2      5       0.000   0.673   0.707
   75   74   72   82   2      5       0.000 179.418   1.237
   83   68   84   67   2      0     180.000 171.418   0.621
   83   68   84   70   2      0     180.000  11.767   0.841
   83   68   88   67   2      0     180.000   8.605   0.921
   83   68   88   70   2      0     180.000 168.210   1.248
   84   83   85   68   3      0     180.000  60.557   0.023
   84   83   85   88   3      0     180.000 119.468   0.033
   84   83   86   68   3      0     180.000 176.363   0.022
   84   83   86   88   3      0     180.000   3.612   0.031
   84   83   89   68   3      0     180.000  57.112   0.033
   84   83   89   88   3      0     180.000 122.863   0.047
   85   84   87   83   3      0     180.000  65.870   0.067
   85   84   87   86   3      0     180.000  54.927   0.079
   85   84   87   89   3      0     180.000 175.778   0.118
   85   84   93   83   3      0     180.000 111.768   0.042
   85   84   93   86   3      0     180.000 127.435   0.050
   85   84   93   89   3      0     180.000   6.584   0.074
   86   84   90   83   3      0     180.000 169.724   0.120
   86   84   90   85   3      0     180.000  49.775   0.147
   86   84   90   89   3      0     180.000  70.737   0.210
   86   84   91   83   3      0     180.000  70.296   0.120
   86   84   91   85   3      0     180.000 169.755   0.147
   86   84   91   89   3      0     180.000  49.243   0.210
   86   84   92   83   3      0     180.000  49.702   0.120
   86   84   92   85   3      0     180.000  70.247   0.147
   86   84   92   89   3      0     180.000 169.241   0.210
   93   85   94   84   2      0     180.000 169.158   0.622
   93   85   94   87   2      0     180.000  13.238   0.842
   93   85   98   84   2      0     180.000  10.835   0.922
   93   85   98   87   2      0     180.000 166.769   1.250
   94   93   95   85   3      0     180.000  54.204   0.023
   94   93   95   98   3      0     180.000 125.788   0.033
   94   93   96   85   3      0     180.000 176.393   0.022
   94   93   96   98   3      0     180.000   3.600   0.031
   94   93   99   85   3      0     180.000  63.463   0.033
   94   93   99   98   3      0     180.000 116.544   0.047
   95   94   97   93   3      0     180.000  55.531   0.067
   95   94   97   96   3      0     180.000  64.441   0.079
   95   94   97   99   3      0     180.000 173.908   0.118
   95   94  103   93   3      0     180.000 123.746   0.042
   95   94  103   96   3      0     180.000 116.281   0.050
   95   94  103   99   3      0     180.000   5.369   0.074
   96   94  100   93   3      0     180.000  95.316   0.120
   96   94  100   95   3      0     180.000  24.097   0.147
   96   94  100   99   3      0     180.000 144.839   0.210
   96   94  101   93   3      0     180.000 144.699   0.120
   96   94  101   95   3      0     180.000  95.888   0.147
   96   94  101   99   3      0     180.000  24.854   0.210
   96   94  102   93   3      0     180.000  24.690   0.120
   96   94  102   95   3      0     180.000 144.103   0.147
   96   94  102   99   3      0     180.000  95.155   0.210
  103   95  104   94   2      0     180.000 166.027   0.648
  103   95  104   97   2      0     180.000  14.712   0.878
  103   95  110   94   2      0     180.000  13.950   0.961
  103   95  110   97   2      0     180.000 165.311   1.302
  104  103  105   95   3      0     180.000  66.704   0.023
  104  103  105  110   3      0     180.000 113.271   0.033
  104  103  106   95   3      0     180.000 167.443   0.022
  104  103  106  110   3      0     180.000  12.582   0.031
  104  103  111   95   3      0     180.000  49.466   0.033
  104  103  111  110   3      0     180.000 130.559   0.046
  105  104  107  103   3      0     180.000  79.056   0.066
  105  104  107  106   3      0     180.000  46.459   0.078
  105  104  107  111   3      0     180.000 164.738   0.116
  105  104  119  103   3      0     180.000  91.601   0.041
  105  104  119  106   3      0     180.000 142.884   0.049
  105  104  119  111   3      0     180.000  24.605   0.072
  106  104  108  103   3      0     180.000  82.488   0.076
  106  104  108  103   1      0     180.000  82.488  -0.068
  106  104  108  105   3      0     180.000 155.660   0.093
  106  104  108  111   3      0     180.000  36.457   0.132
  106  104  109  103   3      0     180.000  38.849   0.076
  106  104  109  103   1      0     180.000  38.849  -0.068
  106  104  109  105   3      0     180.000  83.003   0.093
[...]
N10-C7-C6=110.19               H16-C7-C6=125.76               H16-C7-N10=124.05              C9-N8-C6=105.75                
H15-N8-C6=126.82               H15-N8-C9=127.42               N10-C9-N8=111.92               H17-C9-N8=124.58               
H17-C9-N10=123.50              C9-N10-C7=106.03               

 selected dihedral angles (degree)
 ---------------------------------
C3-C2-N1-H11=186.22           C3-C2-N1-H18=308.41           C3-C2-N1-H19= 65.53           C4-C2-N1-H11= 64.26           
C4-C2-N1-H18=186.46           C4-C2-N1-H19=303.58           H12-C2-N1-H11=304.03          H12-C2-N1-H18= 66.23          
H12-C2-N1-H19=183.35          O5-C3-C2-N1=296.33            O5-C3-C2-C4= 59.13            O5-C3-C2-H12=178.61           
N20-C3-C2-N1=114.70           N20-C3-C2-C4=237.50           N20-C3-C2-H12=356.98          C6-C4-C2-N1=299.98            
C6-C4-C2-C3=179.36            C6-C4-C2-H12= 60.00           H13-C4-C2-N1= 61.60           H13-C4-C2-C3=300.98           
H13-C4-C2-H12=181.62          H14-C4-C2-N1=176.92           H14-C4-C2-C3= 56.31           H14-C4-C2-H12=296.95          
C7-C6-C4-C2=295.82            C7-C6-C4-H13=174.75           C7-C6-C4-H14= 59.15           N8-C6-C4-C2=114.83            
N8-C6-C4-H13=353.76           N8-C6-C4-H14=238.16           N10-C7-C6-C4=179.20           N10-C7-C6-N8=  0.03           
H16-C7-C6-C4=359.20           H16-C7-C6-N8=180.02           C9-N8-C6-C4=180.71            C9-N8-C6-C7=359.89            
H15-N8-C6-C4=  1.64           H15-N8-C6-C7=180.82           N10-C9-N8-C6=  0.16           N10-C9-N8-H15=179.22          
H17-C9-N8-C6=180.13           H17-C9-N8-H15=359.19          C9-N10-C7-C6=  0.07           C9-N10-C7-H16=180.08          
C7-N10-C9-N8=359.86           C7-N10-C9-H17=179.89          
           -------------------------------------------------
          |                Final Singlepoint                |
           -------------------------------------------------
         :::::::::::::::::::::::::::::::::::::::::::::::::::::
         ::                     SUMMARY                     ::
         :::::::::::::::::::::::::::::::::::::::::::::::::::::
         :: total energy             -35.404382851259 Eh    ::
         :: total w/o Gsolv          -35.218498026351 Eh    ::
         :: total w/o Gsasa/hb       -35.370227992171 Eh    ::
         :: gradient norm              0.000814473289 Eh/a0 ::
         ::.................................................::
         :: bond energy              -35.861931250354 Eh    ::
         :: angle energy               0.125235121905 Eh    ::
         :: torsion energy             0.046300382240 Eh    ::
         :: repulsion energy           2.346560130923 Eh    ::
         :: electrostat energy        -1.641092504746 Eh    ::
         :: dispersion energy         -0.173126732562 Eh    ::
         :: HB energy                 -0.016076411752 Eh    ::
         :: XB energy                  0.000000000000 Eh    ::
         :: bonded atm energy         -0.046105850793 Eh    ::
         :: external energy            0.000000000000 Eh    ::
         :: -> Gsolv                  -0.185884824908 Eh    ::
         ::    -> Gborn               -0.151729965820 Eh    ::
         ::    -> Gsasa                0.022781796767 Eh    ::
         ::    -> Ghb                 -0.057301595110 Eh    ::
         ::    -> Gshift               0.000364939255 Eh    ::
         :: add. restraining           0.001739088789 Eh    ::
         :: total charge               0.000000000000 e     ::
         ::.................................................::
         :: atomisation energy         0.000000000000 Eh    ::
         :::::::::::::::::::::::::::::::::::::::::::::::::::::

           -------------------------------------------------
          |                Property Printout                |
           -------------------------------------------------
           -------------------------------------------------
          |                Geometry Summary                 |
           -------------------------------------------------

      molecular mass/u    :     1506.4809045
   center of mass at/Å    :       -8.8494612     -12.4072954       6.3087236
  moments of inertia/u·Å² :        0.9227520E+04   0.4153702E+06   0.4213340E+06
rotational constants/cm⁻¹ :        0.1826887E-02   0.4058460E-04   0.4001014E-04

 * 176 selected distances

     #   Z          #   Z                                           value/Å
     1   7  N       2   6  C                                      1.4917300
     2   6  C       4   6  C                                      1.5280927
     3   6  C       5   8  O                                      1.2147199
     4   6  C       6   6  C                                      1.4867903
     6   6  C       7   6  C                                      1.3830778
     6   6  C       8   7  N                                      1.3677353
     8   7  N       9   6  C                                      1.3744809
     7   6  C      10   7  N                                      1.3461432
     9   6  C      10   7  N                                      1.3137496
     1   7  N      11   1  H                                      1.0285698
     2   6  C      12   1  H                                      1.1005071
     4   6  C      13   1  H                                      1.0930536
     4   6  C      14   1  H                                      1.0947603
     8   7  N      15   1  H                                      1.0198177
     7   6  C      16   1  H                                      1.0809920
     9   6  C      17   1  H                                      1.0824293
     1   7  N      18   1  H                                      1.0351694
     1   7  N      19   1  H                                      1.0266284
     3   6  C      20   7  N                                      1.3775192
    20   7  N      21   6  C                                      1.4505346
    21   6  C      23   6  C                                      1.5299406
    22   6  C      24   8  O                                      1.2150627
    23   6  C      25   6  C                                      1.4880595
    25   6  C      26   6  C                                      1.3833034
    25   6  C      27   7  N                                      1.3669303
    27   7  N      28   6  C                                      1.3732453
    26   6  C      29   7  N                                      1.3444683
    28   6  C      29   7  N                                      1.3127568
    20   7  N      30   1  H                                      1.0205375
    21   6  C      31   1  H                                      1.1008367
    23   6  C      32   1  H                                      1.0940995
    23   6  C      33   1  H                                      1.0942878
    27   7  N      34   1  H                                      1.0201548
    26   6  C      35   1  H                                      1.0816440
    28   6  C      36   1  H                                      1.0831761
    22   6  C      37   7  N                                      1.3757089
    37   7  N      38   6  C                                      1.4542036
    38   6  C      40   6  C                                      1.5371043 (max)
    39   6  C      41   8  O                                      1.2090747
    42   6  C      43   8  O                                      1.2260767
    42   6  C      44   8  O                                      1.2261887
    37   7  N      45   1  H                                      1.0290303
    38   6  C      46   1  H                                      1.1052854
    40   6  C      47   1  H                                      1.0950771
    40   6  C      48   1  H                                      1.0954916
    39   6  C      49   7  N                                      1.3650009
    49   7  N      50   6  C                                      1.4520012
    50   6  C      52   6  C                                      1.5323951
    51   6  C      53   8  O                                      1.2134348
    52   6  C      54   6  C                                      1.4932964
    54   6  C      55   6  C                                      1.3836979
    54   6  C      56   7  N                                      1.3677697
    56   7  N      57   6  C                                      1.3736991
    55   6  C      58   7  N                                      1.3420421
    57   6  C      58   7  N                                      1.3129080
    49   7  N      59   1  H                                      1.0248886
    50   6  C      60   1  H                                      1.1001927
    52   6  C      61   1  H                                      1.0937913
    52   6  C      62   1  H                                      1.0941991
    56   7  N      63   1  H                                      1.0195154
    55   6  C      64   1  H                                      1.0787948
    57   6  C      65   1  H                                      1.0831372
    51   6  C      66   7  N                                      1.3713703
    66   7  N      67   6  C                                      1.4451989
    67   6  C      69   6  C                                      1.5354185
    68   6  C      70   8  O                                      1.2136519
    69   6  C      71   6  C                                      1.4869026
    71   6  C      72   6  C                                      1.3821877
    71   6  C      73   7  N                                      1.3676652
    73   7  N      74   6  C                                      1.3721182
    72   6  C      75   7  N                                      1.3444687
    74   6  C      75   7  N                                      1.3125031
    66   7  N      76   1  H                                      1.0202434
    67   6  C      77   1  H                                      1.1002894
    69   6  C      78   1  H                                      1.0933485
    69   6  C      79   1  H                                      1.0943193
    73   7  N      80   1  H                                      1.0196725
    72   6  C      81   1  H                                      1.0829610
    74   6  C      82   1  H                                      1.0827834
    68   6  C      83   7  N                                      1.3748058
    83   7  N      84   6  C                                      1.4564547
    84   6  C      86   6  C                                      1.5177300
    85   6  C      87   8  O                                      1.2131117
    83   7  N      88   1  H                                      1.0266476
    84   6  C      89   1  H                                      1.1021578
    86   6  C      90   1  H                                      1.0902898
    86   6  C      91   1  H                                      1.0902868
    86   6  C      92   1  H                                      1.0896765
    85   6  C      93   7  N                                      1.3750347
    93   7  N      94   6  C                                      1.4530269
    94   6  C      96   6  C                                      1.5179476
    95   6  C      97   8  O                                      1.2133332
    93   7  N      98   1  H                                      1.0209294
    94   6  C      99   1  H                                      1.1013797
    96   6  C     100   1  H                                      1.0896598
    96   6  C     101   1  H                                      1.0902726
    96   6  C     102   1  H                                      1.0903810
    95   6  C     103   7  N                                      1.3752048
   103   7  N     104   6  C                                      1.4550315
   105   6  C     107   8  O                                      1.2145617
   106   6  C     108   6  C                                      1.5289527
   106   6  C     109   6  C                                      1.5273224
   103   7  N     110   1  H                                      1.0198805
   104   6  C     111   1  H                                      1.0995937
   106   6  C     112   1  H                                      1.1042414
   108   6  C     113   1  H                                      1.0894641
   108   6  C     114   1  H                                      1.0904040
   108   6  C     115   1  H                                      1.0904213
   109   6  C     116   1  H                                      1.0887946
   109   6  C     117   1  H                                      1.0904702
   109   6  C     118   1  H                                      1.0905139
   105   6  C     119   7  N                                      1.3914709
   119   7  N     120   6  C                                      1.4606661
   120   6  C     121   6  C                                      1.4843399
   121   6  C     122   8  O                                      1.2136646
   119   7  N     123   1  H                                      1.0271095
   120   6  C     124   1  H                                      1.0953405
   120   6  C     125   1  H                                      1.0961878
   121   6  C     126   7  N                                      1.3762203
   126   7  N     127   6  C                                      1.4358488
   128   6  C     129   8  O                                      1.2140161
   126   7  N     130   1  H                                      1.0223049
   127   6  C     131   1  H                                      1.0923726
   127   6  C     132   1  H                                      1.0960227
   128   6  C     133   7  N                                      1.3849645
   133   7  N     134   6  C                                      1.4622599
   135   6  C     136   8  O                                      1.2131350
   133   7  N     137   1  H                                      1.0175800
   134   6  C     138   1  H                                      1.0947318
   134   6  C     139   1  H                                      1.0918331
   135   6  C     140   7  N                                      1.3742567
   140   7  N     141   6  C                                      1.4430700
   142   6  C     143   8  O                                      1.2138949
   140   7  N     144   1  H                                      1.0209585
   141   6  C     145   1  H                                      1.0935279
   141   6  C     146   1  H                                      1.0956793
   142   6  C     147   7  N                                      1.3822585
   147   7  N     148   6  C                                      1.4604597
   149   6  C     150   8  O                                      1.2121898
   147   7  N     151   1  H                                      1.0167278 (min)
   148   6  C     152   1  H                                      1.0940334
   148   6  C     153   1  H                                      1.0931834
   149   6  C     154   7  N                                      1.3774003
   154   7  N     155   6  C                                      1.4474657
   156   6  C     157   8  O                                      1.2143773
   154   7  N     158   1  H                                      1.0205390
   155   6  C     159   1  H                                      1.0916963
   155   6  C     160   1  H                                      1.0961800
   156   6  C     161   7  N                                      1.3870589
   161   7  N     162   6  C                                      1.4657450
   163   6  C     164   8  O                                      1.2121567
   161   7  N     165   1  H                                      1.0169071
   162   6  C     166   1  H                                      1.0948330
   162   6  C     167   1  H                                      1.0909958
   163   6  C     168   7  N                                      1.3800731
   168   7  N     169   6  C                                      1.4537407
   170   6  C     171   8  O                                      1.2137031
   168   7  N     172   1  H                                      1.0204347
   169   6  C     173   1  H                                      1.0930722
   169   6  C     174   1  H                                      1.0957696
   170   6  C     175   7  N                                      1.3844532
   175   7  N     176   6  C                                      1.4596039
   177   6  C     178   8  O                                      1.2121300
   175   7  N     179   1  H                                      1.0227466
   176   6  C     180   1  H                                      1.0943130
   176   6  C     181   1  H                                      1.0943204
   177   6  C     182   7  N                                      1.3733738
   182   7  N     183   6  C                                      1.4483147
   183   6  C     185   6  C                                      1.5169789
   184   6  C     186   8  O                                      1.2271866
   184   6  C     187   8  O                                      1.2271543
   182   7  N     188   1  H                                      1.0269555
   183   6  C     189   1  H                                      1.1029166
   185   6  C     190   1  H                                      1.0911864
   185   6  C     191   1  H                                      1.0922493
   185   6  C     192   1  H                                      1.0934116

 * 5 distinct bonds (by element types)

   Z      Z             #   av. dist./Å        max./Å        min./Å
   1 H    6 C          61     1.0929069     1.1052854     1.0787948
   6 C    6 C          19     1.4865020     1.5371043     1.3821877
   1 H    7 N          24     1.0226645     1.0351694     1.0167278
   6 C    7 N          51     1.3963571     1.4917300     1.3125031
   6 C    8 O          21     1.2158488     1.2271866     1.2090747


optimized geometry written to: xtbopt.pdb


           -------------------------------------------------
          | TOTAL ENERGY              -35.404382851259 Eh   |
          | GRADIENT NORM               0.000814473289 Eh/α |
           -------------------------------------------------
########################################################################
[WARNING] Runtime exception occurred
-1- gfnff_setup: Could not read topology file.
########################################################################

------------------------------------------------------------------------
 unit  open   action     filename
   10 false : read       xtb_settings.inp
   10 false : read       ../inputed_PDB/AF-P0DL07-F1-model_v4_protonated_ph7.pdb
   10 false : read       xtb_settings.inp
   10 false : written    gfnff_topo
   10 false : written    gfnff_adjacency
   10 false : written    gfnff_charges
   10 false : written    xtbopt.log
   11 false : created    .xtboptok
   11 false : replaced   gfnff_charges
   10 false : written    xtbopt.pdb

------------------------------------------------------------------------
 * finished run on 2025/05/27 at 09:38:04.929     
------------------------------------------------------------------------
 total:
 * wall-time:     0 d,  0 h,  0 min,  0.995 sec
 *  cpu-time:     0 d,  0 h,  0 min,  0.995 sec
 * ratio c/w:     1.000 speedup
 SCF:
 * wall-time:     0 d,  0 h,  0 min,  0.009 sec
 *  cpu-time:     0 d,  0 h,  0 min,  0.009 sec
 * ratio c/w:     1.000 speedup
 ANC optimizer:
 * wall-time:     0 d,  0 h,  0 min,  0.967 sec
 *  cpu-time:     0 d,  0 h,  0 min,  0.967 sec
 * ratio c/w:     1.000 speedup

