192
 energy: -34.820339833478 gnorm: 0.842276577497 xtb: 6.6.1 (8d0f1dd)
 N         -21.27400000000000      -20.00600000000000       22.41500000000000
 C         -21.10800000000000      -18.71000000000000       21.72800000000000
 C         -19.86800000000000      -18.83400000000000       20.87900000000000
 C         -20.99800000000000      -17.55700000000000       22.73100000000000
 O         -18.76300000000000      -18.72400000000000       21.38500000000000
 C         -22.12000000000000      -17.52900000000000       23.73500000000000
 C         -23.39300000000000      -18.01700000000000       23.58500000000000
 N         -22.04000000000000      -16.99200000000000       24.99800000000000
 C         -23.22700000000000      -17.16900000000000       25.60100000000000
 N         -24.06800000000000      -17.81900000000000       24.78400000000000
 H         -22.14400000000000      -20.01500000000000       22.90600000000000
 H         -21.89100000000000      -18.57200000000000       21.14000000000000
 H         -20.13200000000000      -17.63900000000000       23.23200000000000
 H         -21.00400000000000      -16.68700000000000       22.23100000000000
 H         -21.25300000000000      -16.55100000000000       25.40100000000000
 H         -23.76700000000000      -18.43800000000000       22.76600000000000
 H         -23.45000000000000      -16.86200000000000       26.52500000000000
 H         -21.26500000000000      -20.74400000000000       21.74200000000000
 H         -20.52500000000000      -20.13900000000000       23.06300000000000
 N         -20.06900000000000      -19.28400000000000       19.64900000000000
 C         -18.98300000000000      -19.60600000000000       18.73800000000000
 C         -19.14700000000000      -18.67700000000000       17.54500000000000
 C         -19.01800000000000      -21.10000000000000       18.36600000000000
 O         -19.70700000000000      -19.05600000000000       16.52200000000000
 C         -19.03500000000000      -22.02700000000000       19.55500000000000
 C         -20.14900000000000      -22.45700000000000       20.22100000000000
 N         -17.94800000000000      -22.59100000000000       20.18000000000000
 C         -18.39800000000000      -23.32500000000000       21.21300000000000
 N         -19.73699999999999      -23.23500000000000       21.30399999999999
 H         -21.08000000000000      -19.38800000000000       19.38900000000000
 H         -18.12300000000000      -19.40000000000000       19.18000000000000
 H         -19.84000000000000      -21.27900000000000       17.81600000000000
 H         -18.20800000000000      -21.31500000000000       17.81200000000000
 H         -17.00000000000000      -22.48300000000000       19.92500000000000
 H         -21.09400000000000      -22.25400000000000       19.98000000000000
 H         -17.82000000000000      -23.86300000000000       21.82600000000000
 N         -18.76900000000000      -17.42200000000000       17.71700000000000
 C         -18.65700000000000      -16.46300000000000       16.63300000000000
 C         -17.30900000000000      -16.68200000000000       15.94800000000000
 C         -18.93000000000000      -15.02800000000000       17.10500000000000
 O         -16.22100000000000      -16.42100000000000       16.45700000000000
 C         -18.38600000000000      -14.73100000000000       18.50400000000000
 O         -18.93700000000000      -15.32300000000000       19.46800000000000
 O         -17.43500000000000      -13.93900000000000       18.60600000000000
 H         -18.55399999999999      -17.17400000000000       18.71800000000000
 H         -19.36100000000000      -16.68100000000000       15.96300000000000
 H         -18.49900000000000      -14.40500000000000       16.46100000000000
 H         -19.91400000000000      -14.88800000000000       17.11300000000000
 N         -17.40700000000000      -17.28100000000000       14.76900000000000
 C         -16.29600000000000      -17.48600000000000       13.86900000000000
 C         -15.95900000000000      -16.13700000000000       13.23100000000000
 C         -16.71200000000000      -18.57000000000000       12.86700000000000
 O         -16.54800000000000      -15.73700000000000       12.22700000000000
 C         -15.65700000000000      -18.98900000000000       11.87800000000000
 C         -14.30200000000000      -19.06100000000000       12.07000000000000
 N         -15.91100000000000      -19.46000000000000       10.61100000000000
 C         -14.74200000000000      -19.80900000000000       10.05200000000000
 N         -13.73200000000000      -19.58200000000000       10.90400000000000
 H         -18.39000000000000      -17.60200000000000       14.54200000000000
 H         -15.50400000000000      -17.78700000000000       14.39100000000000
 H         -17.00500000000000      -19.39500000000000       13.38000000000000
 H         -17.51600000000000      -18.24000000000000       12.34400000000000
 H         -16.79700000000000      -19.53200000000000       10.17800000000000
 H         -13.80800000000000      -18.79400000000000       12.88800000000000
 H         -14.63900000000000      -20.18600000000000        9.13100000000000
 N         -15.01500000000000      -15.42200000000000       13.83400000000000
 C         -14.36800000000000      -14.28800000000000       13.19200000000000
 C         -13.50000000000000      -14.82500000000000       12.05300000000000
 C         -13.57900000000000      -13.48200000000000       14.22700000000000
 O         -12.33200000000000      -15.16200000000000       12.23800000000000
 C         -14.47500000000000      -12.66000000000000       15.11500000000000
 C         -15.10000000000000      -13.05600000000000       16.27000000000000
 N         -14.82900000000000      -11.34800000000000       14.89000000000000
 C         -15.63500000000000      -10.95700000000000       15.88800000000000
 N         -15.81700000000000      -11.95700000000000       16.74900000000000
 H         -14.78100000000000      -15.74300000000000       14.79900000000000
 H         -15.06700000000000      -13.69900000000000       12.79900000000000
 H         -13.05700000000000      -14.10900000000000       14.80300000000000
 H         -12.95400000000000      -12.86200000000000       13.75400000000000
 H         -14.54400000000000      -10.78600000000000       14.12900000000000
 H         -15.05400000000000      -13.95000000000000       16.68900000000000
 H         -16.03800000000000      -10.04500000000000       15.97100000000000
 N         -14.10100000000000      -14.96600000000000       10.87300000000000
 C         -13.37200000000000      -15.28800000000000        9.66200000000000
 C         -12.36000000000000      -14.16400000000000        9.41200000000000
 C         -14.36400000000000      -15.46700000000000        8.50700000000000
 O         -12.73400000000000      -13.02100000000000        9.14300000000000
 H         -15.13600000000000      -14.82500000000000       10.90000000000000
 H         -12.87100000000000      -16.13800000000000        9.79300000000000
 H         -13.86100000000000      -15.52200000000000        7.64700000000000
 H         -14.88300000000000      -16.30700000000000        8.64700000000000
 H         -14.98600000000000      -14.68700000000000        8.48400000000000
 N         -11.07300000000000      -14.47900000000000        9.54900000000000
 C         -10.01200000000000      -13.58800000000000        9.12300000000000
 C         -10.25800000000000      -13.23300000000000        7.65100000000000
 C          -8.66300000000000      -14.28600000000000        9.33800000000000
 O         -10.37100000000000      -14.12500000000000        6.80700000000000
 H         -10.90300000000000      -15.41100000000000        9.98400000000000
 H         -10.04900000000000      -12.74900000000000        9.65800000000000
 H          -8.38000000000000      -14.72300000000000        8.48700000000000
 H          -7.98300000000000      -13.60900000000000        9.61100000000000
 H          -8.76000000000000      -14.97400000000000       10.05400000000000
 N         -10.35600000000000      -11.93900000000000        7.34200000000000
 C         -10.28900000000000      -11.46200000000000        5.95800000000000
 C          -8.87100000000000      -11.73800000000000        5.47300000000000
 C         -10.72600000000000       -9.99300000000000        5.79900000000000
 O          -7.92100000000000      -11.01700000000000        5.76900000000000
 C         -12.25600000000000       -9.91900000000000        5.72000000000000
 C         -10.26300000000000       -9.07100000000000        6.93700000000000
 H         -10.48200000000000      -11.30600000000000        8.15700000000000
 H         -10.91300000000000      -12.00300000000000        5.41300000000000
 H         -10.37900000000000       -9.66400000000000        4.93200000000000
 H         -12.64900000000000      -10.63700000000000        6.29100000000000
 H         -12.55800000000000       -9.02500000000000        6.04500000000000
 H         -12.54200000000000      -10.04800000000000        4.77300000000000
 H         -10.21100000000000       -9.60000000000000        7.78100000000000
 H          -9.36500000000000       -8.70300000000000        6.70900000000000
 H         -10.92100000000000       -8.32800000000000        7.03900000000000
 N          -8.72100000000000      -12.91500000000000        4.87700000000000
 C          -7.45100000000000      -13.46200000000000        4.45500000000000
 C          -6.89000000000000      -12.73900000000000        3.24300000000000
 O          -7.63300000000000      -12.29200000000000        2.37700000000000
 H          -9.63700000000000      -13.43000000000000        4.73500000000000
 H          -6.78400000000000      -13.40000000000000        5.21600000000000
 H          -7.56100000000000      -14.44500000000000        4.23300000000000
 N          -5.56100000000000      -12.75400000000000        3.18000000000000
 C          -4.79400000000000      -12.69900000000000        1.94100000000000
 C          -4.70100000000000      -11.29500000000000        1.34500000000000
 O          -5.69400000000000      -10.67300000000000        1.01500000000000
 H          -5.09600000000000      -12.81100000000000        4.12800000000000
 H          -3.85400000000000      -13.04800000000000        2.11200000000000
 H          -5.21700000000000      -13.32100000000000        1.25600000000000
 N          -3.52700000000000      -10.70200000000000        1.18900000000000
 C          -2.28900000000000      -11.34700000000000        0.78200000000000
 C          -2.07000000000000      -11.08400000000000       -0.70300000000000
 O          -2.96000000000000      -11.30000000000000       -1.51800000000000
 H          -3.56500000000000       -9.65200000000000        1.39800000000000
 H          -1.52500000000000      -10.97100000000000        1.30100000000000
 H          -2.35200000000000      -12.33000000000000        0.93800000000000
 N          -0.85200000000000      -10.65700000000000       -1.02200000000000
 C          -0.37300000000000      -10.47700000000000       -2.38800000000000
 C          -0.76500000000000       -9.12300000000000       -2.98000000000000
 O          -1.85200000000000       -8.61900000000000       -2.75300000000000
 H          -0.24400000000000      -10.45400000000000       -0.18100000000000
 H           0.63700000000000      -10.56400000000000       -2.40400000000000
 H          -0.74700000000000      -11.21400000000000       -2.97500000000000
 N           0.08800000000000       -8.44900000000000       -3.73200000000000
 C           1.32400000000000       -8.88700000000000       -4.36200000000000
 C           1.44900000000000       -8.18100000000000       -5.71200000000000
 O           0.45100000000000       -7.72900000000000       -6.26400000000000
 H          -0.24500000000000       -7.41000000000000       -3.86200000000000
 H           2.10100000000000       -8.64300000000000       -3.79000000000000
 H           1.30100000000000       -9.87200000000000       -4.50700000000000
 N           2.67500000000000       -8.12700000000000       -6.23300000000000
 C           3.00500000000000       -7.60700000000000       -7.56600000000000
 C           3.19800000000000       -6.08600000000000       -7.56100000000000
 O           2.30000000000000       -5.35300000000000       -7.18700000000000
 H           3.42300000000000       -8.50500000000000       -5.58200000000000
 H           3.85200000000000       -8.04700000000000       -7.89500000000000
 H           2.26400000000000       -7.84400000000000       -8.20900000000000
 N           4.35100000000000       -5.50700000000000       -7.88800000000000
 C           5.42800000000000       -5.98900000000000       -8.74400000000000
 C           5.19200000000000       -5.52900000000000      -10.18500000000000
 O           4.21900000000000       -5.94200000000000      -10.80400000000000
 H           4.43900000000000       -4.52500000000000       -7.40800000000000
 H           6.30400000000000       -5.62600000000000       -8.42200000000000
 H           5.45800000000000       -6.99000000000000       -8.71900000000000
 N           6.11900000000000       -4.71700000000000      -10.69900000000000
 C           6.17800000000000       -4.25200000000000      -12.08800000000000
 C           5.76600000000000       -2.78400000000000      -12.20900000000000
 O           4.72000000000000       -2.39100000000000      -11.72300000000000
 H           6.84900000000000       -4.41900000000000       -9.98200000000000
 H           7.11700000000000       -4.36300000000000      -12.43700000000000
 H           5.56500000000000       -4.81600000000000      -12.65500000000000
 N           6.53100000000000       -1.89100000000000      -12.81100000000000
 C           7.76000000000000       -2.02200000000000      -13.57400000000000
 C           7.92800000000000       -0.74000000000000      -14.39200000000000
 O           6.93300000000000       -0.12000000000000      -14.75900000000000
 H           6.10000000000000       -0.87300000000000      -12.67000000000000
 H           8.53300000000000       -2.12300000000000      -12.96100000000000
 H           7.69800000000000       -2.79700000000000      -14.19000000000000
 N           9.17600000000000       -0.34700000000000      -14.61400000000000
 C           9.74000000000000        0.36300000000000      -15.76300000000000
 C          11.23600000000000        0.52400000000000      -15.47300000000000
 C           9.07700000000000        1.72400000000000      -16.01300000000000
 O          11.56400000000000        0.81500000000000      -14.29900000000000
 O          12.00800000000000        0.26000000000000      -16.41500000000000
 H           9.82800000000000       -0.62400000000000      -13.77900000000000
 H           9.63300000000000       -0.19300000000000      -16.57200000000000
 H           9.59800000000000        2.43400000000000      -15.54500000000000
 H           9.06400000000000        1.90700000000000      -16.99400000000000
 H           8.14400000000000        1.70400000000000      -15.66100000000000
192
 energy: -35.130867702895 gnorm: 0.443807972760 xtb: 6.6.1 (8d0f1dd)
 N         -21.27370182891041      -20.00574869870341       22.41775103483079
 C         -21.09755565438137      -18.71111788837705       21.73857746654594
 C         -19.86339209140841      -18.83952588191277       20.89084136725157
 C         -21.00794220262810      -17.56352634262868       22.73455502351529
 O         -18.75718426148051      -18.71901551876168       21.38449895550405
 C         -22.11713140166842      -17.52839575096611       23.73717311369791
 C         -23.39252861214485      -18.01109858809983       23.60072685611087
 N         -22.03637547426592      -16.99366278153509       24.99175603917161
 C         -23.23097669196730      -17.17613956351855       25.58886377202889
 N         -24.06485915426602      -17.81613360747010       24.77974106473663
 H         -22.15307326704373      -20.01855228974446       22.91450198137010
 H         -21.91683832899657      -18.56543860594824       21.11936105986516
 H         -20.10680961412361      -17.64272793683059       23.24836344153741
 H         -21.00488085707094      -16.66076624280910       22.21543941257351
 H         -21.24102937702677      -16.54613721516664       25.40391753654622
 H         -23.78128748673333      -18.44893841359487       22.74825130959996
 H         -23.46112969528292      -16.85699909604619       26.54765304456491
 H         -21.26314545143504      -20.75362151963519       21.73724108055866
 H         -20.51711998019847      -20.14305514863831       23.07152675489704
 N         -20.08009916890378      -19.28394151869556       19.64243672341669
 C         -18.99877455706713      -19.60949530794953       18.72849218053912
 C         -19.15513451975361      -18.68796988818396       17.54122789459397
 C         -19.01893486295594      -21.09828638305404       18.37693468638085
 O         -19.70245511645786      -19.05858932663662       16.51673064517680
 C         -19.03051115609849      -22.02477651867028       19.55499204094980
 C         -20.13653068337726      -22.46185109346117       20.23073522807073
 N         -17.95081015370434      -22.58546282131608       20.17540692544404
 C         -18.41175930401007      -23.31908894968810       21.20891245896210
 N         -19.73477493339195      -23.23340652336502       21.29445732623441
 H         -21.07428733258653      -19.39310391652061       19.37860395731657
 H         -18.09835493438067      -19.39186277834316       19.19653930320716
 H         -19.86601900442345      -21.28494929886058       17.80133667624886
 H         -18.18342634081735      -21.32005832261429       17.79573862418786
 H         -16.98844884234145      -22.47928118559396       19.92017672502738
 H         -21.11861498665058      -22.25113932405467       19.97890076931043
 H         -17.81120390418583      -23.87734604114970       21.84461028353875
 N         -18.76305444817272      -17.41880263580272       17.72899271396317
 C         -18.64310743174149      -16.46118702569779       16.64873046764156
 C         -17.30589294222870      -16.68234366542931       15.95967993052061
 C         -18.91794304771605      -15.03411091065600       17.11921411037327
 O         -16.22497751232558      -16.41423331663215       16.45490452233521
 C         -18.38348424215437      -14.73322790995245       18.50953954632182
 O         -18.93108165955169      -15.31768632204767       19.46036129087376
 O         -17.43994248452722      -13.94388766142003       18.60714761806921
 H         -18.54982522981541      -17.16502216424252       18.71591096125818
 H         -19.38133016132695      -16.69243725598170       15.94697548714863
 H         -18.48027302441315      -14.38201024169267       16.44324010980584
 H         -19.94496900075801      -14.88342507011172       17.12057761054461
 N         -17.42062230481145      -17.28150623092233       14.76646680313585
 C         -16.31127696579177      -17.48039721190397       13.85967884738803
 C         -15.96853705672171      -16.14170763936393       13.22284326548187
 C         -16.70161901079690      -18.56628886763310       12.86138275990288
 O         -16.54676137757482      -15.74222932793413       12.22487028295119
 C         -15.65929357592213      -18.98668446023682       11.87491384115661
 C         -14.30432852554496      -19.06663214375671       12.05356763949035
 N         -15.91328608850720      -19.45688551187575       10.61735726163989
 C         -14.73580965772867      -19.80388894587970       10.06464305952883
 N         -13.73830991631229      -19.57926100705742       10.90885937476413
 H         -18.38036694066583      -17.60409763629270       14.53183190361368
 H         -15.48354760257821      -17.79507719364092       14.40789144144718
 H         -17.00964083516004      -19.41599274891879       13.39310617994733
 H         -17.53566052478586      -18.22985944010343       12.32761242075470
 H         -16.80910369185147      -19.53154363307744       10.17485229575083
 H         -13.79032088193396      -18.78823290355258       12.90590816781220
 H         -14.62991682488017      -20.19582850855850        9.10971289785905
 N         -15.01287342632417      -15.42608612590934       13.84270716462532
 C         -14.35762381177848      -14.29791732918883       13.20091311649987
 C         -13.49335171462288      -14.82783042915341       12.06498062886964
 C         -13.59097027263207      -13.48031033950825       14.22900943782589
 O         -12.33192623333297      -15.15793347005764       12.24185186279874
 C         -14.47496595647206      -12.65624681657999       15.11100993398775
 C         -15.10479825927416      -13.03844901497314       16.26665450317818
 N         -14.82534046783119      -11.35392842616589       14.88688743564181
 C         -15.63305707631674      -10.96965439005134       15.89254993396120
 N         -15.81354027374238      -11.96184427016935       16.74569741463139
 H         -14.77438349543047      -15.73760417640868       14.79868295893696
 H         -15.08972828508896      -13.68505722041299       12.78704788865167
 H         -13.04006402224277      -14.12864225786609       14.82280725729891
 H         -12.93555491095042      -12.84217409378464       13.73720503951933
 H         -14.53882288130330      -10.78080470973964       14.11763870443409
 H         -15.05656959719767      -13.97236305597297       16.70329885845192
 H         -16.05045850854388      -10.02401189519371       15.97835437010447
 N         -14.10955379622209      -14.96190667375093       10.87579452293548
 C         -13.38180688352760      -15.27209797688067        9.66265862422454
 C         -12.37361374162438      -14.15805879286401        9.41299217900758
 C         -14.35603027716510      -15.46299444947172        8.51472323773813
 O         -12.73816234489061      -13.02481694529436        9.13960034557436
 H         -15.13639919256871      -14.82623800831837       10.89095033061216
 H         -12.85584556711967      -16.16076605951096        9.80164011704487
 H         -13.84193699870612      -15.52270966608533        7.61839024530001
 H         -14.90007492048315      -16.33373253671081        8.65344379196734
 H         -15.00593875504110      -14.65914195072769        8.48174580524513
 N         -11.07596928393672      -14.48871456858294        9.54999871452133
 C         -10.01696418131981      -13.60309435962769        9.11422663032963
 C         -10.25904131142949      -13.24491827925915        7.65022773700685
 C          -8.67169505701613      -14.28147540405817        9.33424025820124
 O         -10.36433235464234      -14.12419298911942        6.80785709767553
 H         -10.89430175308279      -15.40902353133413        9.98104472094599
 H         -10.05688767899990      -12.72592167790331        9.67514162782243
 H          -8.37061487190477      -14.74013543252349        8.45750690908010
 H          -7.95958115485231      -13.58461104501638        9.61677569906689
 H          -8.76179535903421      -14.99589858646145       10.07855385315012
 N         -10.35763526984533      -11.93357883275354        7.35010854947271
 C         -10.27991127688952      -11.45180074526970        5.97256695461870
 C          -8.87007232923193      -11.72992950386704        5.48573343190080
 C         -10.72944039179052       -9.99610860865528        5.80893058972596
 O          -7.92253122941365      -11.01362873616581        5.76709261221660
 C         -12.24855956601731       -9.92163871759212        5.72117077292830
 C         -10.26290022903833       -9.07735420188456        6.93011148981891
 H         -10.48134491534859      -11.30187032660737        8.15224455813772
 H         -10.93087877113130      -12.02313361000889        5.39959557357643
 H         -10.36120935802077       -9.65082897275469        4.90112863321274
 H         -12.66467871911787      -10.66105610495170        6.31294408299099
 H         -12.57136110441954       -8.99536716088922        6.05376455247005
 H         -12.55378149753080      -10.05609205758247        4.74089800112577
 H         -10.20839614854518       -9.61307594345152        7.81141346669694
 H          -9.33060740770637       -8.69217599283348        6.70258279541950
 H         -10.93908196856707       -8.30050499066107        7.04286210985593
 N          -8.73253996500858      -12.91786261304968        4.87079476373822
 C          -7.46185630099583      -13.45358894113632        4.44870352689768
 C          -6.90269327450185      -12.74042190357350        3.24173377282047
 O          -7.63654414256580      -12.29810048729717        2.37643834481694
 H          -9.62633716860178      -13.43854099997244        4.73391746028603
 H          -6.77350294111171      -13.39245847674741        5.23664883414051
 H          -7.56803438327699      -14.46980761404502        4.22417144585584
 N          -5.55429076499616      -12.74882199887272        3.18753543532083
 C          -4.79853393328304      -12.68764357760169        1.94335215137068
 C          -4.71647787524025      -11.29610277286106        1.34857339117461
 O          -5.71021601692881      -10.67745720239181        1.02104569140659
 H          -5.08450266625439      -12.81335304223751        4.11551070755727
 H          -3.83122899110155      -13.05240721315211        2.11783978545928
 H          -5.23366258608735      -13.33358631661164        1.24115913335499
 N          -3.52283067912698      -10.68541205229118        1.19857664174665
 C          -2.29971518869566      -11.33803143691106        0.77428735833301
 C          -2.07778699924039      -11.08678233269117       -0.70174967810080
 O          -2.95785329146144      -11.30169255961478       -1.51547659153497
 H          -3.55263396869263       -9.65568375205183        1.38556123625665
 H          -1.50209592054248      -10.95732996597738        1.31725719546428
 H          -2.35963949660071      -12.35963436850488        0.94093457120600
 N          -0.84535719885541      -10.65118155483410       -1.01589854858475
 C          -0.37827855059999      -10.46516599393614       -2.38461978053602
 C          -0.77325024531607       -9.12278503277513       -2.97011916261519
 O          -1.85792834080831       -8.62536311977211       -2.74254207467398
 H          -0.23648576020657      -10.45057734939455       -0.19605131204715
 H           0.66335716633890      -10.56214708011387       -2.40322731339150
 H          -0.76264361862609      -11.23083965590253       -2.98699317762885
 N           0.08276174593226       -8.42672802903755       -3.73365181261770
 C           1.30992118715145       -8.87301657918723       -4.36847893363666
 C           1.44065897653733       -8.17984438930487       -5.71101834317919
 O           0.45396195238138       -7.73046206405950       -6.26564718420968
 H          -0.23538417001425       -7.42527236982555       -3.87017655563740
 H           2.12214208977134       -8.63022078510292       -3.77094280962734
 H           1.29139523283189       -9.90047637006545       -4.51291427210344
 N           2.68454952514124       -8.12795760304240       -6.22710088194449
 C           3.00588764052717       -7.59577758579372       -7.55691373117630
 C           3.18877785405738       -6.08683902435049       -7.55202330977714
 O           2.28937118007153       -5.35950537887775       -7.18010705089788
 H           3.42713013510319       -8.49926696122534       -5.59656480487548
 H           3.87649403772841       -8.05587567101861       -7.90208029654061
 H           2.23992353843842       -7.84741561119905       -8.22137275654116
 N           4.35594971408504       -5.49027507129449       -7.87732973049533
 C           5.41512682865124       -5.98026500647604       -8.74990794076699
 C           5.18701685430385       -5.53387400069117      -10.18315023126260
 O           4.22173657118348       -5.94067038848821      -10.80312508696147
 H           4.44454018603467       -4.53475341339688       -7.42589104762612
 H           6.32854542166223       -5.61368305895329       -8.41346771227147
 H           5.45261624460369       -7.01859352230145       -8.71821698833489
 N           6.12739602955608       -4.70929595615784      -10.69135089482498
 C           6.17604169779109       -4.23866468657871      -12.07923631174841
 C           5.75892246280522       -2.78626346045045      -12.19977991966082
 O           4.71449976358498       -2.40043539355114      -11.71528990299478
 H           6.84978191013409       -4.41263945287045       -9.99835154159884
 H           7.14462236266959       -4.36200460950506      -12.44464671343989
 H           5.54410153344933       -4.82970613964156      -12.66459941699224
 N           6.52192529469280       -1.86718211180743      -12.80814241028623
 C           7.74555133505399       -2.00410580402746      -13.57437278592838
 C           7.91652059119447       -0.73793723942914      -14.38781518807966
 O           6.93518150557989       -0.12244211990097      -14.76838477447901
 H           6.11132101817708       -0.88873466620426      -12.68089585721379
 H           8.55348344440525       -2.12193490252322      -12.93697717082421
 H           7.68692398693310       -2.81900529341203      -14.21097431981742
 N           9.19270424772252       -0.34843292138239      -14.59766100040396
 C           9.74982738065418        0.37026025487706      -15.74811924887370
 C          11.24116715000320        0.51804568880147      -15.46887139061904
 C           9.08287033811094        1.71503869836822      -16.00804496516639
 O          11.56443994255543        0.81490414237921      -14.30880677111964
 O          12.00483801737100        0.26594513778531      -16.40957294103722
 H           9.83735545764160       -0.61501860328175      -13.79890845695232
 H           9.63117034528682       -0.21788267666308      -16.59471155465144
 H           9.61446885350954        2.45964969895883      -15.52577683917347