71
 energy: -13.309823666011 gnorm: 0.193564789397 xtb: 6.6.1 (8d0f1dd)
 C         -19.90100000000000      -18.80300000000000       20.84500000000000
 O         -18.79500000000000      -18.61900000000000       21.31300000000000
 N         -20.10300000000000      -19.13500000000000       19.52500000000000
 C         -18.98300000000000      -19.60600000000000       18.73800000000000
 C         -18.85200000000000      -18.75600000000000       17.49500000000000
 C         -19.13100000000000      -21.09600000000000       18.40900000000000
 O         -19.05200000000000      -19.18700000000000       16.37600000000000
 H         -21.02600000000000      -19.39700000000000       19.17600000000000
 H         -18.08900000000000      -19.46500000000000       19.35300000000000
 H         -19.96200000000000      -21.22700000000000       17.71000000000000
 H         -18.23900000000000      -21.45900000000000       17.88900000000000
 N         -18.53400000000000      -17.43500000000000       17.70600000000000
 C         -18.65700000000000      -16.46300000000000       16.63300000000000
 C         -17.41900000000000      -16.46900000000000       15.78700000000000
 C         -19.00600000000000      -15.06200000000000       17.17700000000000
 O         -16.48400000000000      -15.75700000000000       16.06900000000000
 C         -18.11900000000000      -14.64300000000000       18.33200000000000
 O         -18.23900000000000      -15.28600000000000       19.36900000000000
 O         -17.36200000000000      -13.69600000000000       18.14699999999999
 H         -18.46099999999999      -17.05900000000000       18.66100000000000
 H         -19.49200000000000      -16.81700000000000       16.00200000000000
 H         -18.92000000000000      -14.31700000000000       16.37800000000000
 H         -20.04400000000000      -15.04300000000000       17.52700000000000
 N         -17.44500000000000      -17.32600000000000       14.72700000000000
 C         -16.29600000000000      -17.48600000000000       13.86900000000000
 C         -15.90800000000000      -16.18800000000000       13.22100000000000
 C         -16.49200000000000      -18.59700000000000       12.83200000000000
 O         -16.44300000000000      -15.85100000000000       12.18600000000000
 C         -15.24400000000000      -18.98600000000000       12.11700000000000
 C         -14.36000000000000      -18.16000000000000       11.45200000000000
 N         -14.75500000000000      -20.25500000000000       11.96900000000000
 C         -13.60500000000000      -20.13100000000000       11.22800000000000
 N         -13.36200000000000      -18.88000000000000       10.91400000000000
 H         -18.14300000000000      -18.07500000000000       14.68700000000000
 H         -15.45600000000000      -17.79500000000000       14.53600000000000
 H         -16.91700000000000      -19.48100000000000       13.31500000000000
 H         -17.23300000000000      -18.25200000000000       12.10400000000000
 H         -15.16700000000000      -21.11500000000000       12.33200000000000
 H         -14.43600000000000      -17.08600000000000       11.37800000000000
 H         -12.96900000000000      -20.95600000000000       10.93100000000000
 N         -14.94600000000000      -15.43600000000000       13.84800000000000
 C         -14.36800000000000      -14.28800000000000       13.19200000000000
 C         -13.49300000000000      -14.73800000000000       12.05500000000000
 C         -13.60600000000000      -13.37200000000000       14.16000000000000
 O         -12.31400000000000      -14.95700000000000       12.23800000000000
 C         -14.49800000000000      -12.46200000000000       14.92700000000000
 C         -15.58500000000000      -12.79000000000000       15.71600000000000
 N         -14.41300000000000      -11.09700000000000       14.94400000000000
 C         -15.44600000000000      -10.66600000000000       15.73700000000000
 N         -16.15300000000000      -11.67100000000000       16.19900000000000
 H         -14.44800000000000      -15.78400000000000       14.66700000000000
 H         -15.20700000000000      -13.71300000000000       12.76600000000000
 H         -13.00400000000000      -13.97800000000000       14.84200000000000
 H         -12.89300000000000      -12.77000000000000       13.58900000000000
 H         -13.72500000000000      -10.52100000000000       14.45900000000000
 H         -15.95800000000000      -13.78600000000000       15.91700000000000
 H         -15.66400000000000       -9.62900000000000       15.95800000000000
 N         -14.12100000000000      -14.89900000000000       10.84400000000000
 C         -13.37200000000000      -15.28800000000000        9.66200000000000
 C         -12.37400000000000      -14.21100000000000        9.34200000000000
 C         -14.27900000000000      -15.55700000000000        8.47200000000000
 O         -12.76400000000000      -13.10900000000000        9.01900000000000
 H         -15.14600000000000      -14.89000000000000       10.77500000000000
 H         -12.82600000000000      -16.20600000000000        9.92800000000000
 H         -13.70500000000000      -15.87800000000000        7.60200000000000
 H         -15.01900000000000      -16.32500000000000        8.70000000000000
 H         -14.81100000000000      -14.64600000000000        8.19800000000000
 N         -11.04600000000000      -14.54300000000000        9.45600000000000
 C         -10.01200000000000      -13.58800000000000        9.12300000000000
 H         -10.74400000000000      -15.48600000000000        9.70500000000000
 H         -10.22500000000000      -12.68500000000000        9.71700000000000
71
 energy: -13.319579765765 gnorm: 0.070815568735 xtb: 6.6.1 (8d0f1dd)
 C         -19.89980359529815      -18.80853371808166       20.83650189400927
 O         -18.80511059106003      -18.61521323441870       21.31354505530416
 N         -20.10094640195879      -19.13362121923521       19.53031140754878
 C         -18.98390715102430      -19.61159105825014       18.73320254782121
 C         -18.85272858853024      -18.75609093942985       17.49383562960080
 C         -19.13056237233858      -21.09286586746011       18.40359510134742
 O         -19.05392707543561      -19.18547511477098       16.37522137800847
 H         -21.02316845745696      -19.39622026811221       19.18144399479717
 H         -18.08641578300460      -19.46784068499563       19.35102668035800
 H         -19.95566769292084      -21.22873280815561       17.71627382994239
 H         -18.24605686325119      -21.45711597510195       17.88960346342442
 N         -18.53493510060123      -17.43464659583064       17.70571224265829
 C         -18.65954032247375      -16.45976446200357       16.63468124344997
 C         -17.41904725887495      -16.46869411547823       15.78736066394081
 C         -19.00599991448664      -15.06100164747312       17.17752476148586
 O         -16.48378716310346      -15.75660857159852       16.06920306645062
 C         -18.11825488982154      -14.64294439586935       18.33257888928256
 O         -18.23776306391265      -15.28644739715728       19.36943750536463
 O         -17.36132643592278      -13.69620207674109       18.14766071599468
 H         -18.46078235686476      -17.05902670612793       18.66074897740165
 H         -19.49256321065949      -16.81596411920341       16.00190516412368
 H         -18.91983418668357      -14.31657112435949       16.37838467241257
 H         -20.04389486158809      -15.04234961290954       17.52747101047313
 N         -17.44406937997382      -17.32771173478323       14.72794875088059
 C         -16.28961619777651      -17.49080477311900       13.87184566433245
 C         -15.90736121529104      -16.18845514829618       13.22165428728337
 C         -16.49155248503794      -18.59799255411198       12.83165960691459
 O         -16.44266430378947      -15.85256228391179       12.18592432461938
 C         -15.24357938617042      -18.98654144509046       12.11712606704913
 C         -14.35970879879821      -18.16000723073796       11.45210619483324
 N         -14.75465335458680      -20.25545049890023       11.96882706869460
 C         -13.60473178670059      -20.13137625307708       11.22777796846082
 N         -13.36166834077642      -18.88005124096608       10.91378757910402
 H         -18.14266001912137      -18.07626202532063       14.68740359457029
 H         -15.45752002209968      -17.79540953587634       14.53430083893315
 H         -16.91650689876141      -19.48241943493575       13.31460051265054
 H         -17.23268965091649      -18.25270678100403       12.10397089925101
 H         -15.16638626083668      -21.11506515075668       12.33156023594765
 H         -14.43579825813747      -17.08632165146581       11.37838821151059
 H         -12.96880018751798      -20.95632174432558       10.93062804054993
 N         -14.94622033360086      -15.43537255032682       13.84799676324260
 C         -14.36883953294381      -14.28506243747798       13.19230186287449
 C         -13.49403348381645      -14.73739998080578       12.05476695462049
 C         -13.60635524714805      -13.37123289041326       14.16008840332171
 O         -12.31489242622325      -14.95684398450067       12.23764190229326
 C         -14.49814324971527      -12.46153840288298       14.92713241857516
 C         -15.58504407655730      -12.78951145557402       15.71615079323398
 N         -14.41288489492191      -11.09659999591702       14.94419155227939
 C         -15.44584563631775      -10.66574558664863       15.73736138258185
 N         -16.15289182346591      -11.67064136023846       16.19933670027881
 H         -14.44819017963590      -15.78327081128722       14.66705893362397
 H         -15.20742102478884      -13.71248863820668       12.76616536071495
 H         -13.00427391158693      -13.97754221172306       14.84202991828545
 H         -12.89342621767814      -12.76919943956837       13.58897505378775
 H         -13.72500407080730      -10.52065563696246       14.45925439305385
 H         -15.95818618320626      -13.78583579805788       15.91707636335133
 H         -15.66373410744045       -9.62867681728723       15.95846700031418
 N         -14.12198422605012      -14.89961325098355       10.84389155082586
 C         -13.37339175030103      -15.28721585388223        9.66113578789376
 C         -12.37805582217700      -14.20215120301264        9.34155161504794
 C         -14.27950002727698      -15.55737039585473        8.47207500366648
 O         -12.76892065066735      -13.10886737467673        9.01736529907384
 H         -15.14700286674320      -14.88866552161635       10.77460002943140
 H         -12.82549980877434      -16.20453723466033        9.92796036156630
 H         -13.70545510579991      -15.87845259730919        7.60219679420673
 H         -15.01873350216994      -16.32563212672076        8.70035252440690
 H         -14.81186457033463      -14.64671366933200        8.19793017338356
 N         -11.02875954522733      -14.52464310789197        9.45761295028517
 C         -10.02191501714721      -13.60464445099612        9.13628768961770
 H         -10.74301197828723      -15.47749627286867        9.70471872304585
 H         -10.22052884562484      -12.70339774287321        9.70158600032938
71
 energy: -13.321201739560 gnorm: 0.018239152513 xtb: 6.6.1 (8d0f1dd)
 C         -19.89662856580776      -18.81486101617751       20.83227766245078
 O         -18.80987570584946      -18.61017934646336       21.31540528044699
 N         -20.10012561003202      -19.13132887088261       19.53447100134061
 C         -18.98491207624129      -19.61529935787724       18.72943644554441
 C         -18.85319808803914      -18.75585257375619       17.49329978734702
 C         -19.13124227592991      -21.09198155477487       18.40106560825792
 O         -19.05469388727381      -19.18496589025879       16.37494625207555
 H         -21.02173739770556      -19.39533172310690       19.18398789750837
 H         -18.08634555962168      -19.46806663618590       19.35063312319084
 H         -19.95297128416188      -21.22979944620868       17.71844503508107
 H         -18.24859057656878      -21.45651958463435       17.88987067208447
 N         -18.53531522538844      -17.43456520663467       17.70530348699351
 C         -18.66096421610959      -16.45783695802401       16.63534315889464
 C         -17.41920896140227      -16.46864438243882       15.78718938440725
 C         -19.00595841187701      -15.06082102057900       17.17753602146445
 O         -16.48405343662463      -15.75643111497492       16.06903346365369
 C         -18.11793273572811      -14.64299575435187       18.33278183849560
 O         -18.23717109769409      -15.28663117304744       19.36966398622626
 O         -17.36114764753286      -13.69628925080340       18.14780503051146
 H         -18.46107120866451      -17.05888492942194       18.66039188456294
 H         -19.49260624427449      -16.81596530705581       16.00163008493220
 H         -18.91981591200086      -14.31649162923121       16.37841224470857
 H         -20.04389737741051      -15.04229608882970       17.52752511508625
 N         -17.44386602430343      -17.32828566822144       14.72823685164381
 C         -16.28447475605500      -17.49369769405009       13.87439038843979
 C         -15.90728209660175      -16.18844643454354       13.22199920763319
 C         -16.49128474683715      -18.59787052250707       12.83145865050233
 O         -16.44261372743930      -15.85322078541952       12.18599547188863
 C         -15.24325972567076      -18.98655165664289       12.11729262228931
 C         -14.35939480381551      -18.15983806654879       11.45219054719609
 N         -14.75451266212637      -20.25548855924445       11.96883369084383
 C         -13.60468752462049      -20.13154962297234       11.22773400815725
 N         -13.36144683770584      -18.88009069524207       10.91367539832723
 H         -18.14263384894734      -18.07665666861978       14.68721992794837
 H         -15.45718198142983      -17.79525858456726       14.53452677495623
 H         -16.91620147913559      -19.48259104619271       13.31441962465620
 H         -17.23251582281454      -18.25280120918240       12.10393056285426
 H         -15.16611536231996      -21.11486208704882       12.33144361712294
 H         -14.43542214945616      -17.08634288792631       11.37859367164963
 H         -12.96887562753660      -20.95654837592101       10.93051464633192
 N         -14.94654425666648      -15.43517354399853       13.84782890345092
 C         -14.36937075777117      -14.28342264038515       13.19224988435596
 C         -13.49451725061649      -14.73728268773317       12.05450938392024
 C         -13.60656750375932      -13.37112280601468       14.15996341890456
 O         -12.31532269046283      -14.95679589008817       12.23729851282891
 C         -14.49824325111998      -12.46147698351502       14.92710928026340
 C         -15.58508971660987      -12.78938868195831       15.71616856908305
 N         -14.41280151892196      -11.09651650700762       14.94418376226006
 C         -15.44574899522575      -10.66574987544385       15.73748466232410
 N         -16.15284813890314      -11.67057984168128       16.19945007192200
 H         -14.44845718145574      -15.78315072898159       14.66686675134455
 H         -15.20779190629549      -13.71243585135073       12.76600111272897
 H         -13.00439944030424      -13.97746066087438       14.84194838677241
 H         -12.89366879737095      -12.76900162888829       13.58882775446950
 H         -13.72502297450333      -10.52057557972606       14.45925206693391
 H         -15.95826345509320      -13.78582972939737       15.91705020655322
 H         -15.66355770977768       -9.62862841539178       15.95862218316816
 N         -14.12232369268575      -14.90060754080955       10.84383849451081
 C         -13.37491053442427      -15.28785780110559        9.66042989433451
 C         -12.38241724471817      -14.19963129924271        9.34089553217334
 C         -14.27990438691584      -15.55750415659131        8.47198062942557
 O         -12.76988970740413      -13.10966144253788        9.01657671417366
 H         -15.14743640960331      -14.88795112096178       10.77450557524086
 H         -12.82577015256126      -16.20427980419892        9.92774856747518
 H         -13.70563700074458      -15.87861444304348        7.60219949041773
 H         -15.01908678031656      -16.32557640776596        8.70027426452611
 H         -14.81212615969835      -14.64671812676513        8.19786251343410
 N         -11.01701977614186      -14.51335238536008        9.46119820194636
 C         -10.02381475721736      -13.61126511707163        9.14322388782147
 H         -10.74837376107415      -15.47758223126558        9.70026661638303
 H         -10.21784141288240      -12.70866669027461        9.69727457914748
71
 energy: -13.321364516989 gnorm: 0.009473617416 xtb: 6.6.1 (8d0f1dd)
 C         -19.89447310444252      -18.81749970856325       20.83201392525573
 O         -18.80979757300842      -18.60827347569644       21.31648559417780
 N         -20.10044870366282      -19.13041633147918       19.53530491743644
 C         -18.98528482750526      -19.61607560128405       18.72836900956659
 C         -18.85325325502230      -18.75568340013125       17.49338400268293
 C         -19.13162477549245      -21.09207207924659       18.40097638628768
 O         -19.05452961464979      -19.18516215172497       16.37505749773898
 H         -21.02187117384485      -19.39507873161912       19.18379708647811
 H         -18.08694319541216      -19.46772029895926       19.35073075669532
 H         -19.95325267589300      -21.22980873942707       17.71818685012315
 H         -18.24826182379143      -21.45659661088331       17.89000311985190
 N         -18.53523746945013      -17.43468558163923       17.70524285748566
 C         -18.66110656378362      -16.45762098814024       16.63537895652709
 C         -17.41934112188032      -16.46871310591952       15.78698600143604
 C         -19.00595183248816      -15.06096232934297       17.17745270686795
 O         -16.48424352480357      -15.75645434170481       16.06892223289396
 C         -18.11794878326879      -14.64305125411356       18.33275300712491
 O         -18.23716421614895      -15.28665544371006       19.36965274642298
 O         -17.36122265616451      -13.69630613815101       18.14772181422445
 H         -18.46127253719336      -17.05885750553457       18.66031149552801
 H         -19.49253919370580      -16.81615582048033       16.00160074263037
 H         -18.91985085574849      -14.31655705856467       16.37835494617303
 H         -20.04392194314118      -15.04237120945749       17.52749102793921
 N         -17.44436703400503      -17.32792955069716       14.72794053635673
 C         -16.28326380096527      -17.49412868941658       13.87512255219897
 C         -15.90755022186108      -16.18827160513215       13.22190762139616
 C         -16.49133686133453      -18.59743455067998       12.83138248764417
 O         -16.44269988786024      -15.85290909517829       12.18597451597145
 C         -15.24320451624789      -18.98636279812889       12.11739603888637
 C         -14.35929511834933      -18.15967520696097       11.45228741395993
 N         -14.75450579386875      -20.25532364716000       11.96893052147139
 C         -13.60470622383462      -20.13146883739319       11.22784477936667
 N         -13.36139179708294      -18.88002273074607       10.91375943070537
 H         -18.14306846704569      -18.07631260128403       14.68685512911999
 H         -15.45648865174856      -17.79513573866516       14.53537769941152
 H         -16.91626286064519      -19.48218281681407       13.31436446215886
 H         -17.23255471788180      -18.25266666141778       12.10380606927778
 H         -15.16607300120691      -21.11469478859799       12.33151649840929
 H         -14.43528116783316      -17.08620403306273       11.37868714512571
 H         -12.96891299035003      -20.95649541119329       10.93064696146916
 N         -14.94666235187674      -15.43526351248603       13.84775881194583
 C         -14.36940833048302      -14.28330888001479       13.19219476442829
 C         -13.49446901321828      -14.73741503284849       12.05451482047830
 C         -13.60656406879765      -13.37127021343768       14.15990781238055
 O         -12.31527414005429      -14.95681454163679       12.23727557308463
 C         -14.49826848754092      -12.46156020286520       14.92706296232383
 C         -15.58512490959247      -12.78944797427349       15.71611129982360
 N         -14.41282324119628      -11.09658072141390       14.94411036090838
 C         -15.44579653125796      -10.66582246208766       15.73740796219291
 N         -16.15290609161328      -11.67064064140200       16.19936443015952
 H         -14.44850743326355      -15.78325898648048       14.66679109052013
 H         -15.20783778456231      -13.71254024466706       12.76591957288859
 H         -13.00438290085359      -13.97753481598482       14.84193169453967
 H         -12.89365873281123      -12.76911200897455       13.58879412995511
 H         -13.72509115691703      -10.52062656853060       14.45916345458845
 H         -15.95826884654559      -13.78589002021465       15.91700570663601
 H         -15.66362669757314       -9.62868593134662       15.95850796337449
 N         -14.12212642837727      -14.90100611733291       10.84388169548205
 C         -13.37517723081990      -15.28850323094588        9.66026746051340
 C         -12.38375969024215      -14.20139471318404        9.34067551378728
 C         -14.27999895204707      -15.55741976132351        8.47191909792524
 O         -12.76813799375367      -13.11041601908144        9.01672679414490
 H         -15.14735873379188      -14.88783581490022       10.77451733271704
 H         -12.82586096892321      -16.20455465336141        9.92771535685054
 H         -13.70574358677404      -15.87847093194994        7.60209249302147
 H         -15.01939178618821      -16.32532665761411        8.70015221546582
 H         -14.81210294866241      -14.64649981741302        8.19786444786066
 N         -11.01439309291772      -14.51176388445054        9.46380740065100
 C         -10.02242363369341      -13.61051726610849        9.14389924057035
 H         -10.75171861701266      -15.47954389325016        9.69719468014604
 H         -10.21863108601605      -12.70697781211816        9.69748631615810
71
 energy: -13.321417371658 gnorm: 0.001746596877 xtb: 6.6.1 (8d0f1dd)
 C         -19.89234651602543      -18.81959396082475       20.83218556390247
 O         -18.80911995192167      -18.60703071504188       21.31739976061393
 N         -20.10106888219089      -19.12980926421413       19.53552647444987
 C         -18.98550638485084      -19.61645899350968       18.72779554115715
 C         -18.85317464953807      -18.75556305027890       17.49358584355970
 C         -19.13174655551905      -21.09224942512197       18.40119607190510
 O         -19.05413955261930      -19.18550561932709       16.37524168826331
 H         -21.02227642252917      -19.39494048283004       19.18321922933415
 H         -18.08743106113558      -19.46749494492794       19.35080799265504
 H         -19.95370219159967      -21.22973039603016       17.71780922766900
 H         -18.24763044532043      -21.45674215830133       17.89020121552664
 N         -18.53501552342863      -17.43486721136712       17.70529074760426
 C         -18.66100362085028      -16.45771794765807       16.63537574903295
 C         -17.41944514085707      -16.46879364053932       15.78677624915122
 C         -19.00593085079669      -15.06115273359156       17.17738330063321
 O         -16.48433535972957      -15.75653837563837       16.06887003256109
 C         -18.11798754054563      -14.64312363238455       18.33270111682785
 O         -18.23722874112334      -15.28668644255078       19.36960493512510
 O         -17.36131116511125      -13.69633402051331       18.14762105013695
 H         -18.46134914257070      -17.05888462174203       18.66030705608555
 H         -19.49243406880510      -16.81635669581087       16.00162963129109
 H         -18.91986850264681      -14.31668148377610       16.37829110789841
 H         -20.04391497513339      -15.04249789751457       17.52745792997153
 N         -17.44525947141936      -17.32717846789025       14.72728804945864
 C         -16.28284330776593      -17.49417204084631       13.87543862972248
 C         -15.90793356102500      -16.18804864921579       13.22162124487870
 C         -16.49158365972552      -18.59691145000739       12.83127779558227
 O         -16.44275732774177      -15.85216385586777       12.18583376058364
 C         -15.24331965970926      -18.98615428168001       12.11750749578405
 C         -14.35934011061319      -18.15951935034632       11.45243370873161
 N         -14.75461545507161      -20.25512338526209       11.96910408317104
 C         -13.60480180205654      -20.13134353877144       11.22808273597570
 N         -13.36144032561531      -18.87993298296934       10.91396783531828
 H         -18.14384119751607      -18.07561894431526       14.68630376352281
 H         -15.45603263407612      -17.79503315341484       14.53621168249680
 H         -16.91658770263239      -19.48159341173581       13.31430361218628
 H         -17.23274685171114      -18.25247147699547       12.10357944202196
 H         -15.16613193063570      -21.11454683005286       12.33167186371955
 H         -14.43531038448880      -17.08604842161168       11.37879023414446
 H         -12.96897198082349      -20.95637882903150       10.93097173739310
 N         -14.94671131983173      -15.43542174038426       13.84771668334821
 C         -14.36933498599274      -14.28345409434848       13.19218082094239
 C         -13.49432509372330      -14.73760483034866       12.05461034890851
 C         -13.60652486171147      -13.37141279719125       14.15989220361211
 O         -12.31512311059594      -14.95686293706701       12.23734176784119
 C         -14.49829763994120      -12.46163839531657       14.92701211513345
 C         -15.58517361008887      -12.78952352714694       15.71603354252275
 N         -14.41290177553126      -11.09664761323907       14.94401636646144
 C         -15.44591480192685      -10.66589163219551       15.73727598710476
 N         -16.15301332368879      -11.67071350712584       16.19922867534597
 H         -14.44847030346929      -15.78337187927360       14.66677354640756
 H         -15.20779488372542      -13.71268099150667       12.76587601819934
 H         -13.00434161711284      -13.97759398008515       14.84195218258415
 H         -12.89361998759582      -12.76922202831540       13.58880132422601
 H         -13.72523011686738      -10.52066491353861       14.45903402874738
 H         -15.95826355029111      -13.78596493909856       15.91696367625091
 H         -15.66381200256021       -9.62874820284913       15.95831099926001
 N         -14.12182638954044      -14.90131664958687       10.84397558008511
 C         -13.37501500494229      -15.28909329053383        9.66025743537181
 C         -12.38448999467831      -14.20374162292197        9.34058006366347
 C         -14.27997956857878      -15.55740044694338        8.47190454028045
 O         -12.76594825937221      -13.11117310016696        9.01705240995169
 H         -15.14719675518796      -14.88786398735041       10.77453920658250
 H         -12.82572872386280      -16.20491591114634        9.92781453608524
 H         -13.70581778642955      -15.87837267854574        7.60199993192114
 H         -15.01954400666538      -16.32521399548212        8.70008267608995
 H         -14.81203701158210      -14.64640661299793        8.19787960115192
 N         -11.01284896062417      -14.51097620175744        9.46629661839995
 C         -10.02179264214207      -13.60892421545889        9.14306683753052
 H         -10.75414661210314      -15.48070416256468        9.69461899253480
 H         -10.21929069216080      -12.70548633200401        9.69824609340835
71
 energy: -13.321419134116 gnorm: 0.000663563317 xtb: 6.6.1 (8d0f1dd)
 C         -19.89194813783198      -18.81979048255248       20.83227319675660
 O         -18.80889138574835      -18.60707569713477       21.31748941629185
 N         -20.10131399023060      -19.12986508660521       19.53528694927347
 C         -18.98541290003701      -19.61639648489313       18.72795059947935
 C         -18.85306307215061      -18.75559388342676       17.49365424061599
 C         -19.13152696191892      -21.09231950281776       18.40132652801106
 O         -19.05394324033640      -19.18564080983552       16.37529714227344
 H         -21.02239259963559      -19.39501624786129       19.18301475165154
 H         -18.08732796629122      -19.46757624173951       19.35079741286244
 H         -19.95362066047488      -21.22977278311189       17.71783064949785
 H         -18.24743359150735      -21.45679796751091       17.89026585170615
 N         -18.53487906147101      -17.43493929590818       17.70535496703020
 C         -18.66086293301084      -16.45788616482723       16.63538380737779
 C         -17.41943314286344      -16.46880504337947       15.78672417333504
 C         -19.00590336240848      -15.06121663550027       17.17738604742677
 O         -16.48426659765754      -15.75659651016870       16.06890466914886
 C         -18.11797370582418      -14.64316190160532       18.33268905098718
 O         -18.23723766114861      -15.28672210975848       19.36958423912271
 O         -17.36131178370552      -13.69636221096892       18.14760060499406
 H         -18.46124514776000      -17.05894081880302       18.66034672085017
 H         -19.49237467827788      -16.81641531657921       16.00165798809872
 H         -18.91984650031287      -14.31675626258822       16.37827844914470
 H         -20.04387766083917      -15.04257842263653       17.52745492402873
 N         -17.44578307494661      -17.32666076816439       14.72678665747979