      -----------------------------------------------------------      
     |                   =====================                   |     
     |                           x T B                           |     
     |                   =====================                   |     
     |                         S. Grimme                         |     
     |          Mulliken Center for Theoretical Chemistry        |     
     |                    University of Bonn                     |     
      -----------------------------------------------------------      

   * xtb version 6.6.1 (8d0f1dd) compiled by 'conda@1efc2f54142f' on 2023-08-01

   xtb is free software: you can redistribute it and/or modify it under
   the terms of the GNU Lesser General Public License as published by
   the Free Software Foundation, either version 3 of the License, or
   (at your option) any later version.
   
   xtb is distributed in the hope that it will be useful,
   but WITHOUT ANY WARRANTY; without even the implied warranty of
   MERCHANTABILITY or FITNESS FOR A PARTICULAR PURPOSE.  See the
   GNU Lesser General Public License for more details.
   
   Cite this work as:
   * C. Bannwarth, E. Caldeweyher, S. Ehlert, A. Hansen, P. Pracht,
     J. Seibert, S. Spicher, S. Grimme, WIREs Comput. Mol. Sci., 2020, 11,
     e01493. DOI: 10.1002/wcms.1493
   
   for GFN2-xTB:
   * C. Bannwarth, S. Ehlert and S. Grimme., J. Chem. Theory Comput., 2019,
     15, 1652-1671. DOI: 10.1021/acs.jctc.8b01176
   for GFN1-xTB:
   * S. Grimme, C. Bannwarth, P. Shushkov, J. Chem. Theory Comput., 2017,
     13, 1989-2009. DOI: 10.1021/acs.jctc.7b00118
   for GFN0-xTB:
   * P. Pracht, E. Caldeweyher, S. Ehlert, S. Grimme, ChemRxiv, 2019, preprint.
     DOI: 10.26434/chemrxiv.8326202.v1
   for GFN-FF:
   * S. Spicher and S. Grimme, Angew. Chem. Int. Ed., 2020, 59, 15665-15673.
     DOI: 10.1002/anie.202004239
   
   for ALPB and GBSA implicit solvation:
   * S. Ehlert, M. Stahn, S. Spicher, S. Grimme, J. Chem. Theory Comput.,
     2021, 17, 4250-4261. DOI: 10.1021/acs.jctc.1c00471
   
   for DFT-D4:
   * E. Caldeweyher, C. Bannwarth and S. Grimme, J. Chem. Phys., 2017,
     147, 034112. DOI: 10.1063/1.4993215
   * E. Caldeweyher, S. Ehlert, A. Hansen, H. Neugebauer, S. Spicher,
     C. Bannwarth and S. Grimme, J. Chem. Phys., 2019, 150, 154122.
     DOI: 10.1063/1.5090222
   * E. Caldeweyher, J.-M. Mewes, S. Ehlert and S. Grimme, Phys. Chem. Chem. Phys.
     2020, 22, 8499-8512. DOI: 10.1039/D0CP00502A
   
   for sTDA-xTB:
   * S. Grimme and C. Bannwarth, J. Chem. Phys., 2016, 145, 054103.
     DOI: 10.1063/1.4959605
   
   in the mass-spec context:
   * V. Asgeirsson, C. Bauer and S. Grimme, Chem. Sci., 2017, 8, 4879.
     DOI: 10.1039/c7sc00601b
   * J. Koopman and S. Grimme, ACS Omega 2019, 4, 12, 15120-15133.
     DOI: 10.1021/acsomega.9b02011
   
   for metadynamics refer to:
   * S. Grimme, J. Chem. Theory Comput., 2019, 155, 2847-2862
     DOI: 10.1021/acs.jctc.9b00143
   
   for SPH calculations refer to:
   * S. Spicher and S. Grimme, J. Chem. Theory Comput., 2021, 17, 1701-1714
     DOI: 10.1021/acs.jctc.0c01306
   
   with help from (in alphabetical order)
   P. Atkinson, C. Bannwarth, F. Bohle, G. Brandenburg, E. Caldeweyher
   M. Checinski, S. Dohm, S. Ehlert, S. Ehrlich, I. Gerasimov, C. Hölzer
   A. Katbashev, J. Koopman, C. Lavigne, S. Lehtola, F. März, M. Müller,
   F. Musil, H. Neugebauer, J. Pisarek, C. Plett, P. Pracht, F. Pultar,
   J. Seibert, P. Shushkov, S. Spicher, M. Stahn, M. Steiner, T. Strunk,
   J. Stückrath, T. Rose, and J. Unsleber
   
 * started run on 2025/05/27 at 09:37:34.550     

           -------------------------------------------------
          |                Calculation Setup                |
           -------------------------------------------------

          program call               : xtb substructure_9.pdb --gfnff --input xtb_settings.inp --opt vtight --alpb water --verbose
          coordinate file            : substructure_9.pdb
          xtbhome directory          : /home/dargen3
          path for xtb               : /home/dargen3
          xcontrol input file        : xtb_settings.inp
          omp threads                :                     1

$$$$$$$$$$$$$$$$$$$$$$$$$$$$$$$$$$$$$$$$$$$$$$$$$$$$$$$$$$$$$$$$$$$$$$$$
 CONSTRAINTS & SCANS: DEBUG SECTION
$$$$$$$$$$$$$$$$$$$$$$$$$$$$$$$$$$$$$$$$$$$$$$$$$$$$$$$$$$$$$$$$$$$$$$$$
   ID    Z sym.   atoms
    1    6  C     1, 4-6, 14-16, 24-26, 28, 29, 40, 41, 47, 48, 54
    2    8  O     2, 7, 17, 27, 42, 49
    3    7  N     3, 13, 23, 39, 46, 53
    4    1  H     8-12, 18-22, 30-38, 43-45, 50-52, 55-57
> constrain
-> atoms: 1, 2, 3, 4, 5, 6, 7, 8, 9, 10, 11, 12, 13, 14, 15, 16, 17, 18, 19, 20, 21, 22, 24, 39, 40, 41, 42, 43, 44, 45, 46, 47, 48, 49, 50, 51, 52, 53, 54, 55, 56, 57
--> 1: 1
--> 2: 2
--> 3: 3
--> 4: 4
--> 5: 5
--> 6: 6
--> 7: 7
--> 8: 8
--> 9: 9
--> 10: 10
--> 11: 11
--> 12: 12
--> 13: 13
--> 14: 14
--> 15: 15
--> 16: 16
--> 17: 17
--> 18: 18
--> 19: 19
--> 20: 20
--> 21: 21
--> 22: 22
--> 23: 24
--> 24: 39
--> 25: 40
--> 26: 41
--> 27: 42
--> 28: 43
--> 29: 44
--> 30: 45
--> 31: 46
--> 32: 47
--> 33: 48
--> 34: 49
--> 35: 50
--> 36: 51
--> 37: 52
--> 38: 53
--> 39: 54
--> 40: 55
--> 41: 56
--> 42: 57
-> force constant=1.0
$$$$$$$$$$$$$$$$$$$$$$$$$$$$$$$$$$$$$$$$$$$$$$$$$$$$$$$$$$$$$$$$$$$$$$$$
           -------------------------------------------------
          |                   Constraints                   |
           -------------------------------------------------

 * 42 constrained atom positions
   positions refering to input geometry

     #   Z                                   position/Å      displ./Å
     1   6 C    -13.4910013   -14.7470014    12.0590011     0.0000000
     2   8 O    -12.3180011   -14.9890014    12.2500011     0.0000000
     3   7 N    -14.1240013   -14.9130014    10.8470010     0.0000000
     4   6 C    -13.3720012   -15.2880014     9.6620009     0.0000000
     5   6 C    -12.3800011   -14.2040013     9.3480009     0.0000000
     6   6 C    -14.2780013   -15.5580014     8.4710008     0.0000000
     7   8 O    -12.7740012   -13.1030012     9.0230008     0.0000000
     8   1 H    -15.1480014   -14.8970014    10.7770010     0.0000000
     9   1 H    -12.8200012   -16.2040015     9.9240009     0.0000000
    10   1 H    -13.7010013   -15.8690015     7.5990007     0.0000000
    11   1 H    -15.0110014   -16.3330015     8.6960008     0.0000000
    12   1 H    -14.8170014   -14.6490014     8.2030008     0.0000000
    13   7 N    -11.0460010   -14.5470013     9.4480009     0.0000000
    14   6 C    -10.0120009   -13.5880013     9.1230008     0.0000000
    15   6 C    -10.1080009   -13.2310012     7.6540007     0.0000000
    16   6 C     -8.6250008   -14.1000013     9.4640009     0.0000000
    17   8 O    -10.0070009   -14.1040013     6.8170006     0.0000000
    18   1 H    -10.7440010   -15.4910014     9.6910009     0.0000000
    19   1 H    -10.2340009   -12.6870012     9.7120009     0.0000000
    20   1 H     -8.3960008   -14.9830014     8.8660008     0.0000000
    21   1 H     -7.8610007   -13.3510012     9.2520009     0.0000000
    22   1 H     -8.5530008   -14.3770013    10.5160010     0.0000000
    24   6 C    -10.2890010   -11.4620011     5.9580006     0.0000000
    39   7 N     -8.7710008   -12.8840012     4.6090004     0.0000000
    40   6 C     -7.4510007   -13.4620012     4.4550004     0.0000000
    41   6 C     -6.8190006   -13.3060012     3.1360003     0.0000000
    42   8 O     -7.3990007   -13.6320013     2.1220002     0.0000000
    43   1 H     -9.5080009   -13.5950013     4.6850004     0.0000000
    44   1 H     -6.8120006   -12.9940012     5.2300005     0.0000000
    45   1 H     -7.4820007   -14.5310013     4.7200004     0.0000000
    46   7 N     -5.5180005   -12.8530012     3.1520003     0.0000000
    47   6 C     -4.7940004   -12.6990012     1.9410002     0.0000000
    48   6 C     -4.7230004   -11.2520010     1.5150001     0.0000000
    49   8 O     -5.7310005   -10.5810010     1.5970001     0.0000000
    50   1 H     -5.1130005   -12.3900011     3.9690004     0.0000000
    51   1 H     -3.8180004   -13.1560012     2.0370002     0.0000000
    52   1 H     -5.3430005   -13.2560012     1.1560001     0.0000000
    53   7 N     -3.5560003   -10.6780010     1.0200001     0.0000000
    54   6 C     -2.2890002   -11.3470011     0.7820001     0.0000000
    55   1 H     -3.6050003    -9.7410009     0.6260001     0.0000000
    56   1 H     -1.5150001   -10.8810010     1.3970001     0.0000000
    57   1 H     -2.3400002   -12.3970012     1.1070001     0.0000000

     applying 861 atom pairwise harmonic potentials
       applied force constant per pair:     0.0243902
     effective force constant per atom:     1.0000000
         constraining energy/grad norm:     0.0000000     0.0000000

     total constraint energy/grad norm:     0.0000000     0.0000000

          charge from pdb residues: 0

          entering GFN-FF setup routine... 57

          ==================== Thresholds ====================
          CN  :   150.00000
          rep :   500.00000
          disp:  2500.00000
          HB1 :   250.00000
          HB2 :   450.00000

          Pauling EN used:
          Z : 1  EN :  2.20
          Z : 6  EN :  2.55
          Z : 7  EN :  3.04
          Z : 8  EN :  3.44
          electric field strengths (au): 0.000

           ------------------------------------------------- 
          |           Force Field Initialization            |
           ------------------------------------------------- 

          distances ...
          ----------------------------------------
          generating topology and atomic info file ...
          pair mat ...
          computing topology distances matrix with Floyd-Warshall algo ...
          making topology EEQ charges ...
          #fragments for EEQ constrain from pdb file: 7
          ----------------------------------------
          generating topology and atomic info file ...
          pair mat ...
          computing topology distances matrix with Floyd-Warshall algo ...
          making topology EEQ charges ...
          #fragments for EEQ constrain from pdb file: 7
          rings ...
          # BATM   550
          # H in HB   20
          doing iterative Hueckel for 6 subsystem(s) ...
          iterative Hueckel run to get P ...
Hueckel system :  1 charge :   0 ndim/Nel :    3    3   eps(HOMO/LUMO)   -0.937516   -0.937516
Hueckel system :  2 charge :   0 ndim/Nel :    3    4   eps(HOMO/LUMO)   -0.897496   -0.897496
Hueckel system :  3 charge :   0 ndim/Nel :    3    4   eps(HOMO/LUMO)   -0.889630   -0.889630
Hueckel system :  4 charge :   0 ndim/Nel :    3    4   eps(HOMO/LUMO)   -0.919140   -0.919140
Hueckel system :  5 charge :   0 ndim/Nel :    3    4   eps(HOMO/LUMO)   -0.911549   -0.911549
Hueckel system :  6 charge :   0 ndim/Nel :    4    5   eps(HOMO/LUMO)    1.305469    1.305469
WARNING: probably wrong pi occupation for system 6. Second attempt with Nel=Nel-1!
 at,nb,topo%hyb,Npiel:          48  C             3           2           1
 at,nb,topo%hyb,Npiel:          49  O             1           2           1
 at,nb,topo%hyb,Npiel:          53  N             3           3           2
 at,nb,topo%hyb,Npiel:          54  C             3           2           1

          eigenvalues
 #    :           1          2          3          4
 occ. :        2.000      1.987      0.013      0.000
 eps  :        -4.348     -2.183      1.305      3.390
Hueckel system :  6 charge :   0 ndim/Nel :    4    4   eps(HOMO/LUMO)   -2.182606    1.305469

  atom   neighbors  erfCN metchar sp-hybrid imet pi  qest     coordinates
    1   C      2    1.93   0.00        -2    0    1   0.127  -25.494295  -27.867791   22.788207
    2   O      1    0.98   0.00         2    0    1  -0.127  -23.277646  -28.325105   23.149145
    3   N      3    2.79   0.00        -3    0    1  -0.198  -26.690492  -28.181486   20.497859
    4   C      4    3.49   0.00         3    0    0   0.035  -25.269418  -28.890133   18.258534
    5   C      3    2.80   0.00         2    0    1   0.168  -23.394809  -26.841670   17.665160
    6   C      4    3.49   0.00         3    0    0  -0.062  -26.981510  -29.400359   16.007870
    7   O      1    0.98   0.00         2    0    1  -0.371  -24.139362  -24.761081   17.050999
    8   H      1    0.98   0.00         0    0    0   0.139  -28.625571  -28.151250   20.365578
    9   H      1    0.97   0.01         0    0    0   0.069  -24.226289  -30.621122   18.753642
   10   H      1    0.97   0.00         0    0    0   0.073  -25.891138  -29.988064   14.360029
   11   H      1    0.97   0.00         0    0    0   0.073  -28.366679  -30.864897   16.433058
   12   H      1    0.97   0.00         0    0    0   0.073  -28.000072  -27.682598   15.501423
   13   N      3    2.80   0.00        -3    0    1  -0.190  -20.873915  -27.489846   17.854132
   14   C      4    3.49   0.00         3    0    0   0.035  -18.919938  -25.677599   17.239971
   15   C      3    2.80   0.00         2    0    1   0.172  -19.101352  -25.002966   14.463964
   16   C      4    3.49   0.00         3    0    0  -0.062  -16.298888  -26.645138   17.884368
   17   O      1    0.98   0.00         2    0    1  -0.375  -18.910489  -26.652697   12.882263
   18   H      1    0.98   0.00         0    0    0   0.139  -20.303217  -29.273747   18.313336
   19   H      1    0.97   0.01         0    0    0   0.068  -19.339457  -23.974955   18.353020
   20   H      1    0.97   0.00         0    0    0   0.071  -15.866141  -28.313767   16.754312
   21   H      1    0.97   0.00         0    0    0   0.071  -14.855137  -25.229733   17.483746
   22   H      1    0.97   0.00         0    0    0   0.071  -16.162828  -27.168592   19.872360
   23   N      3    2.79   0.00        -3    0    1  -0.205  -19.471738  -22.497190   13.868700
   24   C      4    3.49   0.00         3    0    0   0.029  -19.443392  -21.660041   11.258988
   25   C      3    2.80   0.00         2    0    1   0.142  -16.850688  -22.157039   10.134601
   26   C      4    3.48   0.00         3    0    0  -0.012  -20.354240  -18.908600   10.916948
   27   O      1    0.98   0.00         2    0    1  -0.391  -15.085684  -20.760531   10.576797
   28   C      4    3.49   0.00         3    0    0  -0.060  -23.105681  -18.657266   11.757876
   29   C      4    3.49   0.00         3    0    0  -0.060  -18.666715  -17.009425   12.286999
   30   H      1    0.98   0.00         0    0    0   0.131  -19.369693  -21.121469   15.217964
   31   H      1    0.97   0.01         0    0    0   0.058  -20.790767  -22.897811   10.264992
   32   H      1    0.97   0.01         0    0    0   0.051  -20.248415  -18.490970    8.876044
   33   H      1    0.97   0.00         0    0    0   0.053  -23.300323  -19.124028   13.753427
   34   H      1    0.97   0.00         0    0    0   0.053  -23.804880  -16.737304   11.493314
   35   H      1    0.97   0.00         0    0    0   0.053  -24.335893  -19.932831   10.707188
   36   H      1    0.97   0.00         0    0    0   0.053  -18.764980  -17.260758   14.327903
   37   H      1    0.97   0.00         0    0    0   0.053  -16.693841  -17.224854   11.729530
   38   H      1    0.97   0.00         0    0    0   0.053  -19.231743  -15.068676   11.884488
   39   N      3    2.79   0.00        -3    0    1  -0.138  -16.574788  -24.347231    8.709748
   40   C      4    3.50   0.00         3    0    0   0.002  -14.080349  -25.439493    8.418730
   41   C      3    2.80   0.00         2    0    1   0.174  -12.886042  -25.144696    5.926181
   42   O      1    0.98   0.00         2    0    1  -0.360  -13.982084  -25.760747    4.009999
   43   H      1    0.98   0.00         0    0    0   0.143  -17.967516  -25.690827    8.853367
   44   H      1    0.97   0.01         0    0    0   0.090  -12.872814  -24.555101    9.883268
   45   H      1    0.97   0.01         0    0    0   0.090  -14.138931  -27.459610    8.919507
   46   N      3    2.80   0.00        -3    0    1  -0.165  -10.427509  -24.288650    5.956417
   47   C      4    3.50   0.00         3    0    0   0.007   -9.059347  -23.997632    3.667958
   48   C      3    2.79   0.00         2    0    1   0.194   -8.925176  -21.263198    2.862935
   49   O      1    0.98   0.00         2    0    1  -0.360  -10.830020  -19.995192    3.017893
   50   H      1    0.98   0.00         0    0    0   0.147   -9.662170  -23.413707    7.500323
   51   H      1    0.97   0.00         0    0    0   0.088   -7.214974  -24.861237    3.849372
   52   H      1    0.97   0.01         0    0    0   0.088  -10.096807  -25.050210    2.184523
   53   N      3    2.79   0.00         3    0    1  -0.225   -6.719866  -20.178496    1.927521
   54   C      3    2.78   0.00         2    0    1  -0.008   -4.325583  -21.442722    1.477766
   55   H      1    0.98   0.00         0    0    0   0.123   -6.812463  -18.407822    1.182969
   56   H      1    0.97   0.00         0    0    0   0.055   -2.862935  -20.562110    2.639947
   57   H      1    0.97   0.01         0    0    0   0.055   -4.421959  -23.426935    2.091927

molecular fragment  # atoms  topo charge
       1             2             0.000
       2            10            -0.000
       3            10            -0.000
       4            16             0.000
       5             7            -0.000
       6             7             0.000
       7             5             0.000


          #atoms :   57
          #bonds :   56

 bond atoms        type  in ring    R      R0    piBO    fqq  kbond(tot)  alp
 O  C     2    1      2    0     1.213   0.995   0.800   1.047  -0.252   0.584
 N  C     3    1      2    0     1.377   1.215   0.503   1.047  -0.234   0.524
 C  N     4    3      1    0     1.453   1.326 -99.000   1.047  -0.153   0.496
 C  C     5    4      1    0     1.503   1.333 -99.000   1.000  -0.160   0.475
 C  C     6    4      1    0     1.521   1.371 -99.000   1.043  -0.155   0.468
 O  C     7    5      2    0     1.214   1.031   0.856   1.047  -0.261   0.584
 H  N     8    3      1    0     1.026   0.890 -99.000   1.047  -0.176   0.551
 H  C     9    4      1    0     1.101   0.976 -99.000   1.003  -0.162   0.482
 H  C    10    6      1    0     1.091   0.976 -99.000   1.047  -0.169   0.482
 H  C    11    6      1    0     1.090   0.976 -99.000   1.047  -0.169   0.482
 H  C    12    6      1    0     1.090   0.976 -99.000   1.047  -0.169   0.482
 N  C    13    5      2    0     1.381   1.263   0.504   1.047  -0.235   0.524
 C  N    14   13      1    0     1.447   1.326 -99.000   1.047  -0.153   0.496
 C  C    15   14      1    0     1.515   1.332 -99.000   1.000  -0.160   0.475
 C  C    16   14      1    0     1.517   1.371 -99.000   1.043  -0.155   0.468
 O  C    17   15      2    0     1.214   1.031   0.856   1.047  -0.261   0.584
 H  N    18   13      1    0     1.020   0.890 -99.000   1.047  -0.176   0.551
 H  C    19   14      1    0     1.099   0.976 -99.000   1.004  -0.162   0.482
 H  C    20   16      1    0     1.091   0.976 -99.000   1.047  -0.169   0.482
 H  C    21   16      1    0     1.091   0.976 -99.000   1.047  -0.169   0.482
 H  C    22   16      1    0     1.090   0.976 -99.000   1.047  -0.169   0.482
 N  C    23   15      2    0     1.377   1.263   0.505   1.047  -0.235   0.524
 C  N    24   23      1    0     1.450   1.326 -99.000   1.047  -0.153   0.496
 C  C    25   24      1    0     1.518   1.332 -99.000   1.001  -0.160   0.475
 C  C    26   24      1    0     1.544   1.370 -99.000   1.028  -0.153   0.468
 O  C    27   25      2    0     1.214   1.030   0.860   1.047  -0.262   0.584
 C  C    28   26      1    0     1.528   1.370 -99.000   1.015  -0.151   0.468
 C  C    29   26      1    0     1.527   1.370 -99.000   1.015  -0.151   0.468
 H  N    30   23      1    0     1.021   0.890 -99.000   1.047  -0.176   0.551
 H  C    31   24      1    0     1.102   0.976 -99.000   1.007  -0.162   0.482
 H  C    32   26      1    0     1.104   0.976 -99.000   1.031  -0.166   0.482
 H  C    33   28      1    0     1.089   0.976 -99.000   1.045  -0.168   0.482
 H  C    34   28      1    0     1.090   0.976 -99.000   1.045  -0.168   0.482
 H  C    35   28      1    0     1.090   0.976 -99.000   1.045  -0.168   0.482
 H  C    36   29      1    0     1.089   0.976 -99.000   1.045  -0.168   0.482
 H  C    37   29      1    0     1.091   0.976 -99.000   1.045  -0.168   0.482
 H  C    38   29      1    0     1.091   0.976 -99.000   1.045  -0.168   0.482
 N  C    39   25      2    0     1.390   1.264   0.497   1.047  -0.233   0.524
 C  N    40   39      1    0     1.449   1.326 -99.000   1.028  -0.150   0.496
 C  C    41   40      1    0     1.471   1.332 -99.000   1.018  -0.163   0.475
 O  C    42   41      2    0     1.213   1.031   0.857   1.047  -0.262   0.584
 H  N    43   39      1    0     1.027   0.890 -99.000   1.047  -0.176   0.551
 H  C    44   40      1    0     1.108   0.976 -99.000   1.021  -0.164   0.482
 H  C    45   40      1    0     1.102   0.977 -99.000   1.021  -0.164   0.482
 N  C    46   41      2    0     1.378   1.264   0.502   1.047  -0.234   0.524
 C  N    47   46      1    0     1.419   1.326 -99.000   1.036  -0.151   0.496
 C  C    48   47      1    0     1.510   1.332 -99.000   1.009  -0.162   0.475
 O  C    49   48      2    0     1.214   1.018   0.930   1.047  -0.274   0.584
 H  N    50   46      1    0     1.023   0.890 -99.000   1.047  -0.176   0.551
 H  C    51   47      1    0     1.082   0.977 -99.000   1.016  -0.164   0.482
 H  C    52   47      1    0     1.108   0.976 -99.000   1.016  -0.164   0.482
 N  C    53   48      2    0     1.392   1.291   0.346   1.047  -0.203   0.524
 C  N    54   53      2    0     1.452   1.189   0.906   1.006  -0.302   0.524
 H  N    55   53      1    0     1.018   0.890 -99.000   1.047  -0.176   0.551
 H  C    56   54      1    0     1.093   0.949 -99.000   1.029  -0.179   0.490
 H  C    57   54      1    0     1.100   0.949 -99.000   1.029  -0.179   0.490
          #angl  :   97

 angle atoms        phi0    phi      FC  pi rings
    1    3    2   145.000 123.986   0.081 F   0
    3    4    1   115.000 120.730   0.409 F   0
    3    8    1   115.000 121.102   0.334 F   0
    3    8    4   104.000 117.696   0.181 F   0
    4    5    3   109.500 109.026   0.306 F   0
    4    6    3   109.500 112.106   0.305 F   0
    4    6    5   109.500 110.964   0.305 F   0
    4    9    3   109.500 106.270   0.253 F   0
    4    9    5   109.500 108.597   0.252 F   0
    4    9    6   109.500 109.716   0.251 F   0
    5    7    4   120.000 119.741   0.179 F   0
    5   13    4   120.000 116.322   0.243 F   0
    5   13    7   120.000 123.936   0.176 F   0
    6   10    4   109.500 111.196   0.250 F   0
    6   11    4   109.500 111.418   0.250 F   0
    6   11   10   108.600 108.538   0.208 F   0
    6   12    4   109.500 109.819   0.250 F   0
    6   12   10   108.600 107.620   0.208 F   0
    6   12   11   108.600 108.121   0.208 F   0
   13   14    5   115.000 120.618   0.407 F   0
   13   18    5   115.000 122.199   0.333 F   0
   13   18   14   104.000 117.066   0.181 F   0
   14   15   13   109.500 109.188   0.306 F   0
   14   16   13   109.500 112.274   0.305 F   0
   14   16   15   109.500 110.818   0.305 F   0
   14   19   13   109.500 106.174   0.253 F   0
   14   19   15   109.500 108.282   0.252 F   0
   14   19   16   109.500 109.927   0.251 F   0
   15   17   14   120.000 119.605   0.178 F   0
   15   23   14   120.000 117.247   0.242 F   0
   15   23   17   120.000 123.148   0.176 F   0
   16   20   14   109.500 109.991   0.250 F   0
   16   21   14   109.500 111.402   0.250 F   0
   16   21   20   108.600 107.595   0.208 F   0
   16   22   14   109.500 111.282   0.250 F   0
   16   22   20   108.600 108.027   0.208 F   0
   16   22   21   108.600 108.407   0.208 F   0
   23   24   15   115.000 120.697   0.407 F   0
   23   30   15   115.000 121.271   0.332 F   0
   23   30   24   104.000 116.582   0.181 F   0
   24   25   23   109.500 109.241   0.306 F   0
   24   26   23   109.500 113.349   0.306 F   0
   24   26   25   109.500 113.540   0.305 F   0
   24   31   23   109.500 105.443   0.253 F   0
   24   31   25   109.500 107.138   0.252 F   0
   24   31   26   109.500 107.610   0.251 F   0
   25   27   24   120.000 120.951   0.179 F   0
   25   39   24   120.000 116.857   0.244 F   0
   25   39   27   120.000 122.092   0.178 F   0
   26   28   24   109.500 110.198   0.304 F   0
   26   29   24   109.500 112.471   0.304 F   0
   26   29   28   109.500 111.193   0.305 F   0
   26   32   24   109.500 106.714   0.251 F   0
   26   32   28   109.500 108.410   0.251 F   0
   26   32   29   109.500 107.639   0.251 F   0
   28   33   26   109.500 110.646   0.251 F   0
   28   34   26   109.500 111.531   0.251 F   0
   28   34   33   108.600 107.678   0.208 F   0
   28   35   26   109.500 111.501   0.251 F   0
   28   35   33   108.600 107.309   0.208 F   0
   28   35   34   108.600 107.989   0.208 F   0
   29   36   26   109.500 111.243   0.251 F   0
   29   37   26   109.500 111.248   0.251 F   0
   29   37   36   108.600 107.519   0.208 F   0
   29   38   26   109.500 111.506   0.251 F   0
   29   38   36   108.600 107.187   0.208 F   0
   29   38   37   108.600 107.937   0.208 F   0
   39   40   25   115.000 119.061   0.412 F   0
   39   43   25   115.000 117.495   0.336 F   0
   39   43   40   104.000 112.671   0.182 F   0
   40   41   39   109.500 116.382   0.307 F   0
   40   44   39   109.500 106.408   0.253 F   0
   40   44   41   109.500 109.548   0.251 F   0
   40   45   39   109.500 109.620   0.253 F   0
   40   45   41   109.500 109.310   0.251 F   0
   40   45   44   108.600 104.938   0.209 F   0
   41   42   40   120.000 121.048   0.178 F   0
   41   46   40   120.000 115.481   0.243 F   0
   41   46   42   120.000 123.347   0.176 F   0
   46   47   41   115.000 120.496   0.409 F   0
   46   50   41   115.000 122.148   0.334 F   0
   46   50   47   104.000 115.499   0.182 F   0
   47   48   46   109.500 111.633   0.307 F   0
   47   51   46   109.500 109.793   0.253 F   0
   47   51   48   109.500 112.790   0.252 F   0
   47   52   46   109.500 107.288   0.253 F   0
   47   52   48   109.500 107.765   0.252 F   0
   47   52   51   108.600 107.305   0.209 F   0
   48   49   47   120.000 118.142   0.177 F   0
   48   53   47   120.000 122.347   0.241 F   0
   48   53   49   120.000 119.505   0.174 F   0
   53   54   48   113.000 126.861   0.042 F   0
   53   55   48   113.000 118.499   0.212 F   0
   53   55   54   113.000 113.745   0.105 F   0
   54   56   53   120.000 109.219   0.204 F   0
   54   57   53   120.000 110.531   0.204 F   0
   54   57   56   120.000 105.873   0.167 F   0
 torsion atoms        nrot   rings    phi0    phi      FC
    3    1    4    2   2      0     180.000   5.603   0.801
    3    1    8    2   2      0     180.000 166.334   1.189
    4    3    5    1   3      0     180.000  62.673   0.025
    4    3    5    8   3      0     180.000 125.122   0.033
    4    3    6    1   3      0     180.000 174.060   0.024
    4    3    6    8   3      0     180.000   1.855   0.032
    4    3    9    1   3      0     180.000  54.202   0.035
    4    3    9    8   3      0     180.000 118.003   0.047
    5    4    7    3   3      0     180.000  65.108   0.068
    5    4    7    6   3      0     180.000  58.837   0.080
    5    4    7    9   3      0     180.000 179.507   0.118
    5    4   13    3   3      0     180.000 115.181   0.042
    5    4   13    6   3      0     180.000 120.874   0.050
    5    4   13    9   3      0     180.000   0.205   0.074
    6    4   10    3   3      0     180.000 178.182   0.120
    6    4   10    5   3      0     180.000  59.649   0.148
    6    4   10    9   3      0     180.000  60.357   0.210
    6    4   11    3   3      0     180.000  56.956   0.120
    6    4   11    5   3      0     180.000 179.125   0.148
    6    4   11    9   3      0     180.000  60.869   0.210
    6    4   12    3   3      0     180.000  62.814   0.120
    6    4   12    5   3      0     180.000  59.355   0.148
    6    4   12    9   3      0     180.000 179.361   0.210
   13    5   14    4   2      0     180.000 177.911   0.630
   13    5   14    7   2      0     180.000   1.787   0.853
   13    5   18    4   2      0     180.000   1.970   0.934
   13    5   18    7   2      0     180.000 177.728   1.266
   14   13   15    5   3      0     180.000  63.916   0.023
   14   13   15   18   3      0     180.000 112.227   0.033
   14   13   16    5   3      0     180.000 172.772   0.022
   14   13   16   18   3      0     180.000  11.085   0.032
   14   13   19    5   3      0     180.000  52.620   0.033
   14   13   19   18   3      0     180.000 131.236   0.047
   15   14   17   13   3      0     180.000  58.856   0.068
   15   14   17   16   3      0     180.000  65.317   0.080
   15   14   17   19   3      0     180.000 174.044   0.118
   15   14   23   13   3      0     180.000 121.390   0.042
   15   14   23   16   3      0     180.000 114.437   0.050
   15   14   23   19   3      0     180.000   6.202   0.074
   16   14   20   13   3      0     180.000  63.140   0.120
   16   14   20   15   3      0     180.000  59.253   0.147
   16   14   20   19   3      0     180.000 178.911   0.210
   16   14   21   13   3      0     180.000 177.645   0.120
   16   14   21   15   3      0     180.000  59.962   0.147
   16   14   21   19   3      0     180.000  59.696   0.210
   16   14   22   13   3      0     180.000  56.538   0.120
   16   14   22   15   3      0     180.000 178.931   0.147
   16   14   22   19   3      0     180.000  61.411   0.210
   23   15   24   14   2      0     180.000 174.520   0.650
   23   15   24   17   2      0     180.000   5.224   0.880
   23   15   30   14   2      0     180.000   8.735   0.964
   23   15   30   17   2      0     180.000 171.010   1.306
   24   23   25   15   3      0     180.000  62.568   0.023
   24   23   25   30   3      0     180.000 103.858   0.033
   24   23   26   15   3      0     180.000 169.739   0.022
   24   23   26   30   3      0     180.000  23.834   0.031
   24   23   31   15   3      0     180.000  52.280   0.033
   24   23   31   30   3      0     180.000 141.293   0.047
   25   24   27   23   3      0     180.000  78.666   0.066
   25   24   27   26   3      0     180.000  48.919   0.078
   25   24   27   31   3      0     180.000 167.583   0.116
   25   24   39   23   3      0     180.000  97.775   0.041
   25   24   39   26   3      0     180.000 134.640   0.049
   25   24   39   31   3      0     180.000  15.976   0.073
   26   24   28   23   3      0     180.000  62.538   0.076
   26   24   28   23   1      0     180.000  62.538  -0.068
   26   24   28   25   3      0     180.000 172.041   0.093
   26   24   28   31   3      0     180.000  53.649   0.132
   26   24   29   23   3      0     180.000  62.144   0.076
   26   24   29   23   1      0     180.000  62.144  -0.068
   26   24   29   25   3      0     180.000  63.277   0.093
   26   24   29   31   3      0     180.000 178.332   0.132
   26   24   32   23   3      0     180.000 179.957   0.112
   26   24   32   25   3      0     180.000  54.536   0.138
   26   24   32   31   3      0     180.000  63.855   0.196
   28   26   33   24   3      0     180.000  61.459   0.139
   28   26   33   29   3      0     180.000  63.953   0.139
   28   26   33   32   3      0     180.000 177.910   0.207
   28   26   34   24   3      0     180.000 178.705   0.139
   28   26   34   29   3      0     180.000  55.883   0.139
   28   26   34   32   3      0     180.000  62.254   0.207
   28   26   35   24   3      0     180.000  57.891   0.139
   28   26   35   29   3      0     180.000 176.696   0.139
   28   26   35   32   3      0     180.000  58.559   0.207
   29   26   36   24   3      0     180.000  65.667   0.139
   29   26   36   28   3      0     180.000  58.466   0.139
   29   26   36   32   3      0     180.000 177.068   0.207
   29   26   37   24   3      0     180.000  54.179   0.139
   29   26   37   28   3      0     180.000 178.312   0.139
   29   26   37   32   3      0     180.000  63.086   0.207
   29   26   38   24   3      0     180.000 174.734   0.139
   29   26   38   28   3      0     180.000  61.133   0.139
   29   26   38   32   3      0     180.000  57.469   0.207
   39   25   40   24   2      0     180.000 156.345   0.552
   39   25   40   27   2      0     180.000  20.053   0.748
   39   25   43   24   2      0     180.000  14.502   0.819
   39   25   43   27   2      0     180.000 161.896   1.110
   40   39   41   25   3      0     180.000 106.864   0.022
   40   39   41   43   3      0     180.000 109.572   0.031
   40   39   44   25   3      0     180.000  15.507   0.031
   40   39   44   43   3      0     180.000 128.057   0.045
   40   39   45   25   3      0     180.000 128.477   0.031
   40   39   45   43   3      0     180.000  15.087   0.045
   41   40   42   39   3      0     180.000  52.360   0.065
   41   40   42   44   3      0     180.000 173.071   0.114
   41   40   42   45   3      0     180.000  72.457   0.114
   41   40   46   39   3      0     180.000 131.568   0.041
   41   40   46   44   3      0     180.000  10.857   0.071
   41   40   46   45   3      0     180.000 103.615   0.071
   46   41   47   40   2      0     180.000 178.267   0.609
   46   41   47   42   2      0     180.000   2.296   0.825
   46   41   50   40   2      0     180.000  17.948   0.903
   46   41   50   42   2      0     180.000 166.081   1.224
   47   46   48   41   3      0     180.000 102.189   0.022
   47   46   48   50   3      0     180.000  62.626   0.032
   47   46   51   41   3      0     180.000 131.966   0.032
   47   46   51   50   3      0     180.000  63.219   0.045
   47   46   52   41   3      0     180.000  15.664   0.032
   47   46   52   50   3      0     180.000 179.521   0.045
   48   47   49   46   3      0     180.000  43.436   0.066
   48   47   49   51   3      0     180.000 167.613   0.115
   48   47   49   52   3      0     180.000  74.130   0.115
   48   47   53   46   3      0     180.000 137.481   0.041
   48   47   53   51   3      0     180.000  13.304   0.072
   48   47   53   52   3      0     180.000 104.953   0.072
   53   48   54   47   2      0     180.000   2.878   0.341
   53   48   54   49   2      0     180.000 176.194   0.462
   53   48   55   47   2      0     180.000 171.324   0.486
   53   48   55   49   2      0     180.000   7.747   0.659
   54   53   56   48   2      0     180.000 119.512   1.385
   54   53   56   55   2      0     180.000  71.575   1.974
   54   53   57   48   2      0     180.000   3.418   1.385
   54   53   57   55   2      0     180.000 172.331   1.974
 out-of-plane atoms          phi0    phi      FC
    3    8    1    4          0.000   6.925   0.008
    5    7   13    4          0.000  -0.271  23.514
   13   18    5   14          0.000  -3.492   0.039
   15   17   23   14          0.000  -0.227  23.742
   23   30   15   24          0.000 -12.190  -0.020
   25   27   39   24          0.000   3.214  21.921
   39   43   25   40          0.000  32.686   0.244
   41   42   46   40          0.000  -3.636  23.875
   46   50   41   47          0.000  13.923   0.139
   48   49   53   47          0.000  -0.784  28.451
   53   55   48   54          0.000   9.222  -0.049
   54   56   57   53          0.000  55.653   0.551
          #tors  :   145
          #nmol  :   7
          #optfrag :   7

 GFN-FF setup done.

           ------------------------------------------------- 
          |                   G F N - F F                   |
          |          A general generic force-field          |
          |                  Version 1.0.3                  | 
           ------------------------------------------------- 
      * Solvation model:               ALPB
        Solvent                        water
        Parameter file                 internal GFN-FF/ALPB
        Dielectric constant                8.0200E+01
        Reference state                gsolv [1 M gas/solution]
        Free energy shift                  3.6494E-04 Eh       2.2900E-01 kcal/mol
        Temperature                        2.9815E+02 K
        Density                            1.0000E+00 kg/L
        Solvent mass                       1.8000E+01 g/mol
        Interaction kernel             P16
        Born radius scaling (c1)           1.5056E+00
        Born radii integrator          GBOBC
        Born offset                        0.0000E+00 a0       0.0000E+00 AA
        H-bond correction              true
        Ion screening                  false
        Surface tension                    1.0000E-05 Eh       1.5569E+01 dyn/cm
        Grid points                               230 per atom
          Number of HB bonds (bound hydrogen)     540
          Number of HB bonds (unbound hydrogen)   56
          Number of XB bonds                      0

 E+G (total)                   0 d,  0 h,  0 min,  0.001 sec
 distance/D3 list               ...        0 min,  0.000 sec (  0.890%)
 non bonded repulsion           ...        0 min,  0.000 sec (  2.032%)
 dCN                            ...        0 min,  0.000 sec (  5.452%)
 EEQ energy and q               ...        0 min,  0.000 sec (  4.142%)
 D3                             ...        0 min,  0.000 sec (  8.916%)
 EEQ gradient                   ...        0 min,  0.000 sec ( 11.268%)
 bonds                          ...        0 min,  0.000 sec (  0.790%)
 bend and torsion               ...        0 min,  0.000 sec (  3.067%)
 bonded ATM                     ...        0 min,  0.000 sec (  1.328%)
 HB/XB (incl list setup)        ...        0 min,  0.000 sec (  5.970%)
 GBSA                           ...        0 min,  0.001 sec ( 65.771%)

         :::::::::::::::::::::::::::::::::::::::::::::::::::::
         ::                     SUMMARY                     ::
         :::::::::::::::::::::::::::::::::::::::::::::::::::::
         :: total energy              -9.784540133900 Eh    ::
         :: total w/o Gsolv           -9.735736780410 Eh    ::
         :: total w/o Gsasa/hb        -9.778215061729 Eh    ::
         :: gradient norm              0.176790229924 Eh/a0 ::
         ::.................................................::
         :: bond energy               -9.926751842102 Eh    ::
         :: angle energy               0.034028385719 Eh    ::
         :: torsion energy             0.018724129158 Eh    ::
         :: repulsion energy           0.608898800959 Eh    ::
         :: electrostat energy        -0.407745394683 Eh    ::
         :: dispersion energy         -0.045146452057 Eh    ::
         :: HB energy                 -0.000330927811 Eh    ::
         :: XB energy                  0.000000000000 Eh    ::
         :: bonded atm energy         -0.017413479592 Eh    ::
         :: external energy            0.000000000000 Eh    ::
         :: -> Gsolv                  -0.048803353491 Eh    ::
         ::    -> Gborn               -0.042478281319 Eh    ::
         ::    -> Gsasa                0.007777734823 Eh    ::
         ::    -> Ghb                 -0.014467746249 Eh    ::
         ::    -> Gshift               0.000364939255 Eh    ::
         :: add. restraining           0.000000000000 Eh    ::
         :: total charge              -0.000000000000 e     ::
         ::.................................................::
         :: atomisation energy         0.000000000000 Eh    ::
         :::::::::::::::::::::::::::::::::::::::::::::::::::::

      ----------------------------------------------------------- 
     |                   =====================                   |
     |                        A N C O P T                        |
     |                   =====================                   |
     |               Approximate Normal Coordinate               |
     |                Rational Function Optimizer                |
      ----------------------------------------------------------- 

          ...................................................
          :                      SETUP                      :
          :.................................................:
          :   optimization level         verytight          :
          :   max. optcycles                    10          :
          :   ANC micro-cycles                  10          :
          :   degrees of freedom               165          :
          :.................................................:
          :   RF solver                   davidson          :
          :   write xtbopt.log                true          :
          :   linear?                        false          :
          :   energy convergence         0.1000000E-06 Eh   :
          :   grad. convergence          0.2000000E-03 Eh/α :
          :   maxmium RF displ.          1.0000000          :
          :   Hlow (freq-cutoff)         0.1000000E-01      :
          :   Hmax (freq-cutoff)         5.0000000          :
          :   S6 in model hess.         20.0000000          :
          ...................................................

generating ANC from model Hessian ...
Using GFN-FF Lindh-Hessian
 Shifting diagonal of input Hessian by    8.7542205875118240E-003
 Lowest  eigenvalues of input Hessian
    0.000000    0.000000    0.000000    0.000000    0.000000    0.000000
    0.010000    0.010655    0.011477    0.019020    0.020829    0.021747
    0.024345    0.035096    0.037029    0.040832    0.055049    0.060257
 Highest eigenvalues
    3.607344    3.624205    3.741549    3.944585    4.088064    4.422093


........................................................................
.............................. CYCLE    1 ..............................
........................................................................
     iter. time                 ...        0 min,  0.001 sec
 * total energy  :    -9.7845401 Eh     change        0.0000000E+00 Eh
   gradient norm :     0.1767902 Eh/α   predicted     0.0000000E+00 (    NaN%)
   displ. norm   :     0.1096217 α      lambda       -0.1416676E-01
   maximum displ.:     0.0366329 α      in ANC's #66, #90, #154, ...

........................................................................
.............................. CYCLE    2 ..............................
........................................................................
     iter. time                 ...        0 min,  0.001 sec
 * total energy  :    -9.7943090 Eh     change       -0.9768840E-02 Eh
   gradient norm :     0.0711064 Eh/α   predicted    -0.7205978E-02 ( -26.24%)
   displ. norm   :     0.0760073 α      lambda       -0.4112910E-02
   maximum displ.:     0.0297528 α      in ANC's #63, #90, #154, ...

........................................................................
.............................. CYCLE    3 ..............................
........................................................................
     iter. time                 ...        0 min,  0.001 sec
 * total energy  :    -9.7965848 Eh     change       -0.2275842E-02 Eh
   gradient norm :     0.0222057 Eh/α   predicted    -0.2068489E-02 (  -9.11%)
   displ. norm   :     0.0289771 α      lambda       -0.3793002E-03
   maximum displ.:     0.0160239 α      in ANC's #63, #38, #64, ...

........................................................................
.............................. CYCLE    4 ..............................
........................................................................
     iter. time                 ...        0 min,  0.001 sec
 * total energy  :    -9.7968687 Eh     change       -0.2838462E-03 Eh
   gradient norm :     0.0127196 Eh/α   predicted    -0.1955960E-03 ( -31.09%)
   displ. norm   :     0.0298829 α      lambda       -0.2074440E-03
   maximum displ.:     0.0171392 α      in ANC's #63, #27, #64, ...

........................................................................
.............................. CYCLE    5 ..............................
........................................................................
     iter. time                 ...        0 min,  0.001 sec
 * total energy  :    -9.7969833 Eh     change       -0.1146525E-03 Eh
   gradient norm :     0.0036937 Eh/α   predicted    -0.1038434E-03 (  -9.43%)
   displ. norm   :     0.0070992 α      lambda       -0.1244042E-04
   maximum displ.:     0.0038499 α      in ANC's #63, #1, #2, ...

........................................................................
.............................. CYCLE    6 ..............................
........................................................................
     iter. time                 ...        0 min,  0.001 sec
 * total energy  :    -9.7969922 Eh     change       -0.8852919E-05 Eh
   gradient norm :     0.0020527 Eh/α   predicted    -0.6247977E-05 ( -29.42%)
   displ. norm   :     0.0075052 α      lambda       -0.6426126E-05
   maximum displ.:     0.0034479 α      in ANC's #2, #63, #1, ...

........................................................................
.............................. CYCLE    7 ..............................
........................................................................
     iter. time                 ...        0 min,  0.001 sec
 * total energy  :    -9.7969960 Eh     change       -0.3882042E-05 Eh
   gradient norm :     0.0010167 Eh/α   predicted    -0.3216578E-05 ( -17.14%)
   displ. norm   :     0.0072269 α      lambda       -0.1104665E-05
   maximum displ.:     0.0044455 α      in ANC's #2, #1, #3, ...

........................................................................
.............................. CYCLE    8 ..............................
........................................................................
     iter. time                 ...        0 min,  0.001 sec
 * total energy  :    -9.7969971 Eh     change       -0.1090037E-05 Eh
   gradient norm :     0.0006211 Eh/α   predicted    -0.6122525E-06 ( -43.83%)
   displ. norm   :     0.0076401 α      lambda        0.5260946E-06
   maximum displ.:     0.0047393 α      in ANC's #2, #1, #3, ...

........................................................................
.............................. CYCLE    9 ..............................
........................................................................
     iter. time                 ...        0 min,  0.001 sec
 * total energy  :    -9.7969967 Eh     change        0.3920856E-06 Eh
   gradient norm :     0.0011841 Eh/α   predicted     0.2622850E-06 ( -33.11%)
   displ. norm   :     0.0024862 α      lambda       -0.1055997E-05
   maximum displ.:     0.0013475 α      in ANC's #63, #38, #46, ...

........................................................................
.............................. CYCLE   10 ..............................
........................................................................
     iter. time                 ...        0 min,  0.001 sec
 * total energy  :    -9.7969977 Eh     change       -0.9724956E-06 Eh
   gradient norm :     0.0003754 Eh/α   predicted    -0.5372396E-06 ( -44.76%)
   displ. norm   :     0.0051998 α      lambda       -0.2763396E-06
   maximum displ.:     0.0039703 α      in ANC's #2, #1, #3, ...

   *** FAILED TO CONVERGE GEOMETRY OPTIMIZATION IN 10 ITERATIONS ***


 ANCopt (total)                0 d,  0 h,  0 min,  0.015 sec
 optimizer setup                ...        0 min,  0.000 sec (  0.816%)
 model hessian                  ...        0 min,  0.001 sec (  3.569%)
 ANC generation                 ...        0 min,  0.002 sec ( 10.998%)
 coordinate transformation      ...        0 min,  0.000 sec (  0.435%)
 single point calculation       ...        0 min,  0.011 sec ( 75.969%)
 optimization log               ...        0 min,  0.001 sec (  4.462%)
 hessian update                 ...        0 min,  0.000 sec (  0.607%)
 rational function              ...        0 min,  0.000 sec (  1.971%)

================
 final structure:
================
ATOM      1  C   HIS A   5     -13.494 -14.792  12.042  1.00  0.00           C  
ATOM      2  O   HIS A   5     -12.321 -14.957  12.259  1.00  0.00           O  
ATOM      3  N   ALA A   6     -14.123 -14.903  10.857  1.00  0.00           N  
ATOM      4  CA  ALA A   6     -13.375 -15.288   9.660  1.00  0.00           C  
ATOM      5  C   ALA A   6     -12.379 -14.206   9.346  1.00  0.00           C  
ATOM      6  CB  ALA A   6     -14.279 -15.556   8.470  1.00  0.00           C  
ATOM      7  O   ALA A   6     -12.773 -13.104   9.024  1.00  0.00           O  
ATOM      8  H   ALA A   6     -15.145 -14.894  10.781  1.00  0.00           H  
ATOM      9  HA  ALA A   6     -12.821 -16.204   9.922  1.00  0.00           H  
ATOM     10  HB1 ALA A   6     -13.702 -15.867   7.598  1.00  0.00           H  
ATOM     11  HB2 ALA A   6     -15.013 -16.331   8.695  1.00  0.00           H  
ATOM     12  HB3 ALA A   6     -14.818 -14.647   8.203  1.00  0.00           H  
ATOM     13  N   ALA A   7     -11.048 -14.543   9.449  1.00  0.00           N  
ATOM     14  CA  ALA A   7     -10.012 -13.586   9.122  1.00  0.00           C  
ATOM     15  C   ALA A   7     -10.108 -13.230   7.654  1.00  0.00           C  
ATOM     16  CB  ALA A   7      -8.625 -14.100   9.464  1.00  0.00           C  
ATOM     17  O   ALA A   7     -10.007 -14.103   6.817  1.00  0.00           O  
ATOM     18  H   ALA A   7     -10.745 -15.489   9.691  1.00  0.00           H  
ATOM     19  HA  ALA A   7     -10.235 -12.685   9.712  1.00  0.00           H  
ATOM     20  HB1 ALA A   7      -8.396 -14.982   8.867  1.00  0.00           H  
ATOM     21  HB2 ALA A   7      -7.862 -13.350   9.252  1.00  0.00           H  
ATOM     22  HB3 ALA A   7      -8.554 -14.376  10.517  1.00  0.00           H  
ATOM     23  N   VAL A   8     -10.296 -11.905   7.338  1.00  0.00           N  
ATOM     24  CA  VAL A   8     -10.290 -11.464   5.954  1.00  0.00           C  
ATOM     25  C   VAL A   8      -8.922 -11.726   5.352  1.00  0.00           C  
ATOM     26  CB  VAL A   8     -10.772 -10.007   5.778  1.00  0.00           C  
ATOM     27  O   VAL A   8      -7.988 -10.984   5.580  1.00  0.00           O  
ATOM     28  CG1 VAL A   8     -12.226  -9.873   6.228  1.00  0.00           C  
ATOM     29  CG2 VAL A   8      -9.876  -9.002   6.500  1.00  0.00           C  
ATOM     30  H   VAL A   8     -10.247 -11.179   8.051  1.00  0.00           H  
ATOM     31  HA  VAL A   8     -11.007 -12.117   5.435  1.00  0.00           H  
ATOM     32  HB  VAL A   8     -10.720  -9.785   4.698  1.00  0.00           H  
ATOM     33 HG11 VAL A   8     -12.326 -10.120   7.285  1.00  0.00           H  
ATOM     34 HG12 VAL A   8     -12.597  -8.857   6.089  1.00  0.00           H  
ATOM     35 HG13 VAL A   8     -12.880 -10.549   5.675  1.00  0.00           H  
ATOM     36 HG21 VAL A   8      -9.924  -9.136   7.580  1.00  0.00           H  
ATOM     37 HG22 VAL A   8      -8.834  -9.116   6.202  1.00  0.00           H  
ATOM     38 HG23 VAL A   8     -10.176  -7.976   6.288  1.00  0.00           H  
ATOM     39  N   GLY A   9      -8.771 -12.887   4.608  1.00  0.00           N  
ATOM     40  CA  GLY A   9      -7.443 -13.467   4.467  1.00  0.00           C  
ATOM     41  C   GLY A   9      -6.816 -13.311   3.137  1.00  0.00           C  
ATOM     42  O   GLY A   9      -7.398 -13.633   2.123  1.00  0.00           O  
ATOM     43  H   GLY A   9      -9.507 -13.598   4.685  1.00  0.00           H  
ATOM     44  HA2 GLY A   9      -6.812 -12.995   5.230  1.00  0.00           H  
ATOM     45  HA3 GLY A   9      -7.481 -14.533   4.721  1.00  0.00           H  
ATOM     46  N   GLY A  10      -5.519 -12.854   3.151  1.00  0.00           N  
ATOM     47  CA  GLY A  10      -4.803 -12.696   1.929  1.00  0.00           C  
ATOM     48  C   GLY A  10      -4.734 -11.248   1.508  1.00  0.00           C  
ATOM     49  O   GLY A  10      -5.730 -10.578   1.599  1.00  0.00           O  
ATOM     50  H   GLY A  10      -5.114 -12.391   3.968  1.00  0.00           H  
ATOM     51  HA2 GLY A  10      -3.818 -13.156   2.038  1.00  0.00           H  
ATOM     52  HA3 GLY A  10      -5.341 -13.261   1.157  1.00  0.00           H  
ATOM     53  N   GLY A  11      -3.527 -10.720   1.008  1.00  0.00           N  
ATOM     54  CA  GLY A  11      -2.302 -11.310   0.813  1.00  0.00           C  
ATOM     55  H   GLY A  11      -3.598  -9.753   0.633  1.00  0.00           H  
ATOM     56  HA2 GLY A  11      -1.508 -10.878   1.400  1.00  0.00           H  
ATOM     57  HA3 GLY A  11      -2.350 -12.374   1.091  1.00  0.00           H  
END

 Bond Distances (Angstroems)
 ---------------------------
C1-O2=1.2037         C1-N3=1.3461         O2-C1=1.2037         N3-C1=1.3461         N3-C4=1.4622         N3-H8=1.0256         
C4-N3=1.4622         C4-C5=1.5036         C4-C6=1.5182         C4-H9=1.1023         C5-C4=1.5036         C5-O7=1.2142         
C5-N13=1.3768        C6-C4=1.5182         C6-H10=1.0910        C6-H11=1.0904        C6-H12=1.0899        O7-C5=1.2142         
H8-N3=1.0256         H9-C4=1.1023         H10-C6=1.0910        H11-C6=1.0904        H12-C6=1.0899        N13-C5=1.3768        
N13-C14=1.4480       N13-H18=1.0223       C14-N13=1.4480       C14-C15=1.5136       C14-C16=1.5177       C14-H19=1.1003       
C15-C14=1.5136       C15-O17=1.2137       C15-N23=1.3746       C16-C14=1.5177       C16-H20=1.0901       C16-H21=1.0907       
C16-H22=1.0902       O17-C15=1.2137       H18-N13=1.0223       H19-C14=1.1003       H20-C16=1.0901       H21-C16=1.0907       
H22-C16=1.0902       N23-C15=1.3746       N23-C24=1.4525       N23-H30=1.0196       C24-N23=1.4525       C24-C25=1.5172       
C24-C26=1.5449       C24-H31=1.0998       C25-C24=1.5172       C25-O27=1.2142       C25-N39=1.3876       C26-C24=1.5449       
C26-C28=1.5283       C26-C29=1.5276       C26-H32=1.1042       O27-C25=1.2142       C28-C26=1.5283       C28-H33=1.0898       
C28-H34=1.0904       C28-H35=1.0904       C29-C26=1.5276       C29-H36=1.0886       C29-H37=1.0904       C29-H38=1.0906       
H30-N23=1.0196       H31-C24=1.0998       H32-C26=1.1042       H33-C28=1.0898       H34-C28=1.0904       H35-C28=1.0904       
H36-C29=1.0886       H37-C29=1.0904       H38-C29=1.0906       N39-C25=1.3876       N39-C40=1.4555       N39-H43=1.0266       
C40-N39=1.4555       C40-C41=1.4788       C40-H44=1.0968       C40-H45=1.0965       C41-C40=1.4788       C41-O42=1.2129       
C41-N46=1.3758       O42-C41=1.2129       H43-N39=1.0266       H44-C40=1.0968       H45-C40=1.0965       N46-C41=1.3758       
N46-C47=1.4250       N46-H50=1.0225       C47-N46=1.4250       C47-C48=1.5097       C47-H51=1.0931       C47-H52=1.0974       
C48-C47=1.5097       C48-O49=1.2041       C48-N53=1.4095       O49-C48=1.2041       H50-N46=1.0225       H51-C47=1.0931       
H52-C47=1.0974       N53-C48=1.4095       N53-C54=1.3736       N53-H55=1.0389       C54-N53=1.3736       C54-H56=1.0772       
C54-H57=1.1006       H55-N53=1.0389       H56-C54=1.0772       H57-C54=1.1006       
 C  H  Rav=1.0932 sigma=0.0059  Rmin=1.0772  Rmax=1.1042    22
 C  C  Rav=1.5160 sigma=0.0165  Rmin=1.4788  Rmax=1.5449    10
 N  H  Rav=1.0259 sigma=0.0063  Rmin=1.0196  Rmax=1.0389     6
 N  C  Rav=1.4073 sigma=0.0383  Rmin=1.3461  Rmax=1.4622    12
 O  C  Rav=1.2105 sigma=0.0047  Rmin=1.2037  Rmax=1.2142     6

 selected bond angles (degree)
 --------------------
N3-C1-O2=127.06                C4-N3-C1=120.20                H8-N3-C1=122.02                H8-N3-C4=116.85                
C5-C4-N3=108.66                C6-C4-N3=112.54                C6-C4-C5=110.96                H9-C4-N3=106.35                
H9-C4-C5=108.35                H9-C4-C6=109.79                O7-C5-C4=119.59                N13-C5-C4=116.65               
N13-C5-O7=123.76               H10-C6-C4=111.21               H11-C6-C4=111.39               H11-C6-H10=108.48              
H12-C6-C4=109.85               H12-C6-H10=107.65              H12-C6-H11=108.13              

 selected dihedral angles (degree)
 ---------------------------------
C4-N3-C1-O2=  1.35            H8-N3-C1-O2=169.96            C5-C4-N3-C1=294.98            C5-C4-N3-H8=125.79            
C6-C4-N3-C1=171.68            C6-C4-N3-H8=  2.49            H9-C4-N3-C1= 51.42            H9-C4-N3-H8=242.24            
O7-C5-C4-N3=294.81            O7-C5-C4-C6= 59.05            O7-C5-C4-H9=179.66            N13-C5-C4-N3=114.74           
N13-C5-C4-C6=238.98           N13-C5-C4-H9=359.59           H10-C6-C4-N3=181.55           H10-C6-C4-C5= 59.54           
H10-C6-C4-H9=299.80           H11-C6-C4-N3=302.70           H11-C6-C4-C5=180.69           H11-C6-C4-H9= 60.94           
H12-C6-C4-N3= 62.49           H12-C6-C4-C5=300.48           H12-C6-C4-H9=180.73           
           -------------------------------------------------
          |                Final Singlepoint                |
           -------------------------------------------------
         :::::::::::::::::::::::::::::::::::::::::::::::::::::
         ::                     SUMMARY                     ::
         :::::::::::::::::::::::::::::::::::::::::::::::::::::
         :: total energy              -9.796998073759 Eh    ::
         :: total w/o Gsolv           -9.748381760317 Eh    ::
         :: total w/o Gsasa/hb        -9.790908971276 Eh    ::
         :: gradient norm              0.000229004987 Eh/a0 ::
         ::.................................................::
         :: bond energy               -9.950784463063 Eh    ::
         :: angle energy               0.031956061620 Eh    ::
         :: torsion energy             0.020418134368 Eh    ::
         :: repulsion energy           0.615839349931 Eh    ::
         :: electrostat energy        -0.408216789710 Eh    ::
         :: dispersion energy         -0.045156096735 Eh    ::
         :: HB energy                 -0.000329266369 Eh    ::
         :: XB energy                  0.000000000000 Eh    ::
         :: bonded atm energy         -0.017219243583 Eh    ::
         :: external energy            0.000000000000 Eh    ::
         :: -> Gsolv                  -0.048616313443 Eh    ::
         ::    -> Gborn               -0.042527210960 Eh    ::
         ::    -> Gsasa                0.007829258604 Eh    ::
         ::    -> Ghb                 -0.014283300342 Eh    ::
         ::    -> Gshift               0.000364939255 Eh    ::
         :: add. restraining           0.005110553225 Eh    ::
         :: total charge               0.000000000000 e     ::
         ::.................................................::
         :: atomisation energy         0.000000000000 Eh    ::
         :::::::::::::::::::::::::::::::::::::::::::::::::::::

           -------------------------------------------------
          |                Property Printout                |
           -------------------------------------------------
           -------------------------------------------------
          |                Geometry Summary                 |
           -------------------------------------------------

      molecular mass/u    :      412.4415001
   center of mass at/Å    :       -9.3021871     -12.7572922       6.2445927
  moments of inertia/u·Å² :        0.1422393E+04   0.9202693E+04   0.9714632E+04
rotational constants/cm⁻¹ :        0.1185160E-01   0.1831815E-02   0.1735283E-02

 * 50 selected distances

     #   Z          #   Z                                           value/Å
     1   6  C       3   7  N                                      1.3461416
     3   7  N       4   6  C                                      1.4622320
     4   6  C       6   6  C                                      1.5182325
     5   6  C       7   8  O                                      1.2141842
     3   7  N       8   1  H                                      1.0255954
     4   6  C       9   1  H                                      1.1023484
     6   6  C      10   1  H                                      1.0910302
     6   6  C      11   1  H                                      1.0903627
     6   6  C      12   1  H                                      1.0898863
     5   6  C      13   7  N                                      1.3768272
    13   7  N      14   6  C                                      1.4479605
    14   6  C      16   6  C                                      1.5177206
    15   6  C      17   8  O                                      1.2136768
    13   7  N      18   1  H                                      1.0222945
    14   6  C      19   1  H                                      1.1002502
    16   6  C      20   1  H                                      1.0900689
    16   6  C      21   1  H                                      1.0906756
    16   6  C      22   1  H                                      1.0901515
    15   6  C      23   7  N                                      1.3745768
    23   7  N      24   6  C                                      1.4524812
    25   6  C      27   8  O                                      1.2141703
    26   6  C      28   6  C                                      1.5282921 (max)
    26   6  C      29   6  C                                      1.5276084
    23   7  N      30   1  H                                      1.0195650 (min)
    24   6  C      31   1  H                                      1.0998397
    26   6  C      32   1  H                                      1.1042285
    28   6  C      33   1  H                                      1.0898236
    28   6  C      34   1  H                                      1.0903773
    28   6  C      35   1  H                                      1.0904131
    29   6  C      36   1  H                                      1.0886461
    29   6  C      37   1  H                                      1.0903930
    29   6  C      38   1  H                                      1.0905558
    25   6  C      39   7  N                                      1.3875633
    39   7  N      40   6  C                                      1.4554627
    40   6  C      41   6  C                                      1.4787517
    41   6  C      42   8  O                                      1.2129278
    39   7  N      43   1  H                                      1.0266171
    40   6  C      44   1  H                                      1.0968419
    40   6  C      45   1  H                                      1.0965454
    41   6  C      46   7  N                                      1.3757766
    46   7  N      47   6  C                                      1.4249505
    48   6  C      49   8  O                                      1.2040809
    46   7  N      50   1  H                                      1.0225161
    47   6  C      51   1  H                                      1.0930776
    47   6  C      52   1  H                                      1.0974427
    48   6  C      53   7  N                                      1.4094720
    53   7  N      54   6  C                                      1.3736390
    53   7  N      55   1  H                                      1.0389479
    54   6  C      56   1  H                                      1.0772282
    54   6  C      57   1  H                                      1.1006184

 * 5 distinct bonds (by element types)

   Z      Z             #   av. dist./Å        max./Å        min./Å
   1 H    6 C          22     1.0932184     1.1042285     1.0772282
   6 C    6 C           5     1.5141211     1.5282921     1.4787517
   1 H    7 N           6     1.0259227     1.0389479     1.0195650
   6 C    7 N          12     1.4072569     1.4622320     1.3461416
   6 C    8 O           5     1.2118080     1.2141842     1.2040809


optimized geometry written to: xtbopt.pdb


           -------------------------------------------------
          | TOTAL ENERGY               -9.796998073759 Eh   |
          | GRADIENT NORM               0.000229004987 Eh/α |
           -------------------------------------------------
########################################################################
[WARNING] Runtime exception occurred
-1- gfnff_setup: Could not read topology file.
########################################################################

------------------------------------------------------------------------
 unit  open   action     filename
   10 false : read       xtb_settings.inp
   10 false : read       substructure_9.pdb
   10 false : read       xtb_settings.inp
   10 false : written    gfnff_topo
   10 false : written    gfnff_adjacency
   10 false : written    gfnff_charges
   10 false : deleted    .xtboptok
   10 false : replaced   xtbopt.log
   11 false : created    .xtboptok
   11 false : replaced   gfnff_charges
   10 false : replaced   xtbopt.pdb

------------------------------------------------------------------------
 * finished run on 2025/05/27 at 09:37:34.573     
------------------------------------------------------------------------
 total:
 * wall-time:     0 d,  0 h,  0 min,  0.023 sec
 *  cpu-time:     0 d,  0 h,  0 min,  0.023 sec
 * ratio c/w:     0.999 speedup
 SCF:
 * wall-time:     0 d,  0 h,  0 min,  0.002 sec
 *  cpu-time:     0 d,  0 h,  0 min,  0.002 sec
 * ratio c/w:     0.995 speedup
 ANC optimizer:
 * wall-time:     0 d,  0 h,  0 min,  0.016 sec
 *  cpu-time:     0 d,  0 h,  0 min,  0.016 sec
 * ratio c/w:     1.000 speedup

