      -----------------------------------------------------------      
     |                   =====================                   |     
     |                           x T B                           |     
     |                   =====================                   |     
     |                         S. Grimme                         |     
     |          Mulliken Center for Theoretical Chemistry        |     
     |                    University of Bonn                     |     
      -----------------------------------------------------------      

   * xtb version 6.6.1 (8d0f1dd) compiled by 'conda@1efc2f54142f' on 2023-08-01

   xtb is free software: you can redistribute it and/or modify it under
   the terms of the GNU Lesser General Public License as published by
   the Free Software Foundation, either version 3 of the License, or
   (at your option) any later version.
   
   xtb is distributed in the hope that it will be useful,
   but WITHOUT ANY WARRANTY; without even the implied warranty of
   MERCHANTABILITY or FITNESS FOR A PARTICULAR PURPOSE.  See the
   GNU Lesser General Public License for more details.
   
   Cite this work as:
   * C. Bannwarth, E. Caldeweyher, S. Ehlert, A. Hansen, P. Pracht,
     J. Seibert, S. Spicher, S. Grimme, WIREs Comput. Mol. Sci., 2020, 11,
     e01493. DOI: 10.1002/wcms.1493
   
   for GFN2-xTB:
   * C. Bannwarth, S. Ehlert and S. Grimme., J. Chem. Theory Comput., 2019,
     15, 1652-1671. DOI: 10.1021/acs.jctc.8b01176
   for GFN1-xTB:
   * S. Grimme, C. Bannwarth, P. Shushkov, J. Chem. Theory Comput., 2017,
     13, 1989-2009. DOI: 10.1021/acs.jctc.7b00118
   for GFN0-xTB:
   * P. Pracht, E. Caldeweyher, S. Ehlert, S. Grimme, ChemRxiv, 2019, preprint.
     DOI: 10.26434/chemrxiv.8326202.v1
   for GFN-FF:
   * S. Spicher and S. Grimme, Angew. Chem. Int. Ed., 2020, 59, 15665-15673.
     DOI: 10.1002/anie.202004239
   
   for ALPB and GBSA implicit solvation:
   * S. Ehlert, M. Stahn, S. Spicher, S. Grimme, J. Chem. Theory Comput.,
     2021, 17, 4250-4261. DOI: 10.1021/acs.jctc.1c00471
   
   for DFT-D4:
   * E. Caldeweyher, C. Bannwarth and S. Grimme, J. Chem. Phys., 2017,
     147, 034112. DOI: 10.1063/1.4993215
   * E. Caldeweyher, S. Ehlert, A. Hansen, H. Neugebauer, S. Spicher,
     C. Bannwarth and S. Grimme, J. Chem. Phys., 2019, 150, 154122.
     DOI: 10.1063/1.5090222
   * E. Caldeweyher, J.-M. Mewes, S. Ehlert and S. Grimme, Phys. Chem. Chem. Phys.
     2020, 22, 8499-8512. DOI: 10.1039/D0CP00502A
   
   for sTDA-xTB:
   * S. Grimme and C. Bannwarth, J. Chem. Phys., 2016, 145, 054103.
     DOI: 10.1063/1.4959605
   
   in the mass-spec context:
   * V. Asgeirsson, C. Bauer and S. Grimme, Chem. Sci., 2017, 8, 4879.
     DOI: 10.1039/c7sc00601b
   * J. Koopman and S. Grimme, ACS Omega 2019, 4, 12, 15120-15133.
     DOI: 10.1021/acsomega.9b02011
   
   for metadynamics refer to:
   * S. Grimme, J. Chem. Theory Comput., 2019, 155, 2847-2862
     DOI: 10.1021/acs.jctc.9b00143
   
   for SPH calculations refer to:
   * S. Spicher and S. Grimme, J. Chem. Theory Comput., 2021, 17, 1701-1714
     DOI: 10.1021/acs.jctc.0c01306
   
   with help from (in alphabetical order)
   P. Atkinson, C. Bannwarth, F. Bohle, G. Brandenburg, E. Caldeweyher
   M. Checinski, S. Dohm, S. Ehlert, S. Ehrlich, I. Gerasimov, C. Hölzer
   A. Katbashev, J. Koopman, C. Lavigne, S. Lehtola, F. März, M. Müller,
   F. Musil, H. Neugebauer, J. Pisarek, C. Plett, P. Pracht, F. Pultar,
   J. Seibert, P. Shushkov, S. Spicher, M. Stahn, M. Steiner, T. Strunk,
   J. Stückrath, T. Rose, and J. Unsleber
   
 * started run on 2025/05/27 at 09:37:37.692     

           -------------------------------------------------
          |                Calculation Setup                |
           -------------------------------------------------

          program call               : xtb substructure_15.pdb --gfnff --input xtb_settings.inp --opt vtight --alpb water --verbose
          coordinate file            : substructure_15.pdb
          xtbhome directory          : /home/dargen3
          path for xtb               : /home/dargen3
          xcontrol input file        : xtb_settings.inp
          omp threads                :                     1

$$$$$$$$$$$$$$$$$$$$$$$$$$$$$$$$$$$$$$$$$$$$$$$$$$$$$$$$$$$$$$$$$$$$$$$$
 CONSTRAINTS & SCANS: DEBUG SECTION
$$$$$$$$$$$$$$$$$$$$$$$$$$$$$$$$$$$$$$$$$$$$$$$$$$$$$$$$$$$$$$$$$$$$$$$$
   ID    Z sym.   atoms
    1    6  C     1, 4-6, 14-16, 24-26, 28, 29, 40, 41, 47, 48, 54
    2    8  O     2, 7, 17, 27, 42, 49
    3    7  N     3, 13, 23, 39, 46, 53
    4    1  H     8-12, 18-22, 30-38, 43-45, 50-52, 55-57
> constrain
-> atoms: 1, 2, 3, 4, 5, 6, 7, 8, 9, 10, 11, 12, 13, 14, 15, 16, 17, 18, 19, 20, 21, 22, 24, 39, 40, 41, 42, 43, 44, 45, 46, 47, 48, 49, 50, 51, 52, 53, 54, 55, 56, 57
--> 1: 1
--> 2: 2
--> 3: 3
--> 4: 4
--> 5: 5
--> 6: 6
--> 7: 7
--> 8: 8
--> 9: 9
--> 10: 10
--> 11: 11
--> 12: 12
--> 13: 13
--> 14: 14
--> 15: 15
--> 16: 16
--> 17: 17
--> 18: 18
--> 19: 19
--> 20: 20
--> 21: 21
--> 22: 22
--> 23: 24
--> 24: 39
--> 25: 40
--> 26: 41
--> 27: 42
--> 28: 43
--> 29: 44
--> 30: 45
--> 31: 46
--> 32: 47
--> 33: 48
--> 34: 49
--> 35: 50
--> 36: 51
--> 37: 52
--> 38: 53
--> 39: 54
--> 40: 55
--> 41: 56
--> 42: 57
-> force constant=1.0
$$$$$$$$$$$$$$$$$$$$$$$$$$$$$$$$$$$$$$$$$$$$$$$$$$$$$$$$$$$$$$$$$$$$$$$$
           -------------------------------------------------
          |                   Constraints                   |
           -------------------------------------------------

 * 42 constrained atom positions
   positions refering to input geometry

     #   Z                                   position/Å      displ./Å
     1   6 C    -13.4930013   -14.7380014    12.0540011     0.0000000
     2   8 O    -12.3170011   -14.9710014    12.2410011     0.0000000
     3   7 N    -14.1210013   -14.8990014    10.8440010     0.0000000
     4   6 C    -13.3720012   -15.2880014     9.6620009     0.0000000
     5   6 C    -12.3740011   -14.2110013     9.3420009     0.0000000
     6   6 C    -14.2790013   -15.5570014     8.4720008     0.0000000
     7   8 O    -12.7640012   -13.1090012     9.0190008     0.0000000
     8   1 H    -15.1460014   -14.8900014    10.7750010     0.0000000
     9   1 H    -12.8260012   -16.2060015     9.9280009     0.0000000
    10   1 H    -13.7050013   -15.8780015     7.6020007     0.0000000
    11   1 H    -15.0190014   -16.3250015     8.7000008     0.0000000
    12   1 H    -14.8110014   -14.6460014     8.1980008     0.0000000
    13   7 N    -11.0450010   -14.5500013     9.4430009     0.0000000
    14   6 C    -10.0120009   -13.5880013     9.1230008     0.0000000
    15   6 C    -10.1070009   -13.2290012     7.6580007     0.0000000
    16   6 C     -8.6240008   -14.0960013     9.4670009     0.0000000
    17   8 O    -10.0110009   -14.1090013     6.8290006     0.0000000
    18   1 H    -10.7420010   -15.4920014     9.6920009     0.0000000
    19   1 H    -10.2370009   -12.6880012     9.7160009     0.0000000
    20   1 H     -8.3930008   -14.9780014     8.8700008     0.0000000
    21   1 H     -7.8620007   -13.3450012     9.2560009     0.0000000
    22   1 H     -8.5530008   -14.3730013    10.5190010     0.0000000
    24   6 C    -10.2890010   -11.4620011     5.9580006     0.0000000
    39   7 N     -8.7570008   -12.8290012     4.5220004     0.0000000
    40   6 C     -7.4510007   -13.4620012     4.4550004     0.0000000
    41   6 C     -6.7810006   -13.3890012     3.1450003     0.0000000
    42   8 O     -7.2930007   -13.8610013     2.1520002     0.0000000
    43   1 H     -9.5330009   -13.4840013     4.4070004     0.0000000
    44   1 H     -6.8250006   -12.9840012     5.2240005     0.0000000
    45   1 H     -7.5420007   -14.5160013     4.7630004     0.0000000
    46   7 N     -5.5340005   -12.8080012     3.1480003     0.0000000
    47   6 C     -4.7940004   -12.6990012     1.9410002     0.0000000
    48   6 C     -4.7400004   -11.2720010     1.4490001     0.0000000
    49   8 O     -5.7650005   -10.6220010     1.4730001     0.0000000
    50   1 H     -5.2000005   -12.2320011     3.9240004     0.0000000
    51   1 H     -3.8120004   -13.1320012     2.0770002     0.0000000
    52   1 H     -5.3190005   -13.3030012     1.1760001     0.0000000
    53   7 N     -3.5760003   -10.6960010     0.9640001     0.0000000
    54   6 C     -2.2890002   -11.3470011     0.7820001     0.0000000
    55   1 H     -3.6340003    -9.7760009     0.5330000     0.0000000
    56   1 H     -1.5420001   -10.8480010     1.4070001     0.0000000
    57   1 H     -2.3300002   -12.3870011     1.1300001     0.0000000

     applying 861 atom pairwise harmonic potentials
       applied force constant per pair:     0.0243902
     effective force constant per atom:     1.0000000
         constraining energy/grad norm:     0.0000000     0.0000000

     total constraint energy/grad norm:     0.0000000     0.0000000

          charge from pdb residues: 0

          entering GFN-FF setup routine... 57

          ==================== Thresholds ====================
          CN  :   150.00000
          rep :   500.00000
          disp:  2500.00000
          HB1 :   250.00000
          HB2 :   450.00000

          Pauling EN used:
          Z : 1  EN :  2.20
          Z : 6  EN :  2.55
          Z : 7  EN :  3.04
          Z : 8  EN :  3.44
          electric field strengths (au): 0.000

           ------------------------------------------------- 
          |           Force Field Initialization            |
           ------------------------------------------------- 

          distances ...
          ----------------------------------------
          generating topology and atomic info file ...
          pair mat ...
          computing topology distances matrix with Floyd-Warshall algo ...
          making topology EEQ charges ...
          #fragments for EEQ constrain from pdb file: 7
          ----------------------------------------
          generating topology and atomic info file ...
          pair mat ...
          computing topology distances matrix with Floyd-Warshall algo ...
          making topology EEQ charges ...
          #fragments for EEQ constrain from pdb file: 7
          rings ...
          # BATM   550
          # H in HB   20
          doing iterative Hueckel for 6 subsystem(s) ...
          iterative Hueckel run to get P ...
Hueckel system :  1 charge :   0 ndim/Nel :    3    3   eps(HOMO/LUMO)   -0.937516   -0.937516
Hueckel system :  2 charge :   0 ndim/Nel :    3    4   eps(HOMO/LUMO)   -0.897496   -0.897496
Hueckel system :  3 charge :   0 ndim/Nel :    3    4   eps(HOMO/LUMO)   -0.889630   -0.889630
Hueckel system :  4 charge :   0 ndim/Nel :    3    4   eps(HOMO/LUMO)   -0.919140   -0.919140
Hueckel system :  5 charge :   0 ndim/Nel :    3    4   eps(HOMO/LUMO)   -0.911549   -0.911549
Hueckel system :  6 charge :   0 ndim/Nel :    4    5   eps(HOMO/LUMO)    1.305469    1.305469
WARNING: probably wrong pi occupation for system 6. Second attempt with Nel=Nel-1!
 at,nb,topo%hyb,Npiel:          48  C             3           2           1
 at,nb,topo%hyb,Npiel:          49  O             1           2           1
 at,nb,topo%hyb,Npiel:          53  N             3           3           2
 at,nb,topo%hyb,Npiel:          54  C             3           2           1

          eigenvalues
 #    :           1          2          3          4
 occ. :        2.000      1.987      0.013      0.000
 eps  :        -4.348     -2.183      1.305      3.390
Hueckel system :  6 charge :   0 ndim/Nel :    4    4   eps(HOMO/LUMO)   -2.182606    1.305469

  atom   neighbors  erfCN metchar sp-hybrid imet pi  qest     coordinates
    1   C      2    1.93   0.00        -2    0    1   0.127  -25.498075  -27.850784   22.778759
    2   O      1    0.98   0.00         2    0    1  -0.127  -23.275757  -28.291090   23.132137
    3   N      3    2.79   0.00        -3    0    1  -0.198  -26.684823  -28.155030   20.492190
    4   C      4    3.49   0.00         3    0    0   0.035  -25.269418  -28.890133   18.258534
    5   C      3    2.80   0.00         2    0    1   0.168  -23.383471  -26.854898   17.653821
    6   C      4    3.49   0.00         3    0    0  -0.062  -26.983399  -29.398469   16.009760
    7   O      1    0.98   0.00         2    0    1  -0.371  -24.120464  -24.772420   17.043440
    8   H      1    0.98   0.00         0    0    0   0.139  -28.621792  -28.138022   20.361799
    9   H      1    0.97   0.01         0    0    0   0.069  -24.237627  -30.624902   18.761201
   10   H      1    0.97   0.00         0    0    0   0.073  -25.898697  -30.005071   14.365698
   11   H      1    0.97   0.00         0    0    0   0.073  -28.381797  -30.849779   16.440617
   12   H      1    0.97   0.00         0    0    0   0.073  -27.988734  -27.676929   15.491975
   13   N      3    2.80   0.00        -3    0    1  -0.190  -20.872025  -27.495515   17.844684
   14   C      4    3.49   0.00         3    0    0   0.035  -18.919938  -25.677599   17.239971
   15   C      3    2.80   0.00         2    0    1   0.172  -19.099462  -24.999187   14.471523
   16   C      4    3.49   0.00         3    0    0  -0.062  -16.296998  -26.637579   17.890037
   17   O      1    0.98   0.00         2    0    1  -0.375  -18.918048  -26.662146   12.904940
   18   H      1    0.98   0.00         0    0    0   0.139  -20.299438  -29.275637   18.315226
   19   H      1    0.97   0.01         0    0    0   0.068  -19.345126  -23.976845   18.360579
   20   H      1    0.97   0.00         0    0    0   0.071  -15.860471  -28.304318   16.761871
   21   H      1    0.97   0.00         0    0    0   0.071  -14.857027  -25.218395   17.491305
   22   H      1    0.97   0.00         0    0    0   0.071  -16.162828  -27.161034   19.878029
   23   N      3    2.79   0.00        -3    0    1  -0.205  -19.477407  -22.497190   13.868700
   24   C      4    3.49   0.00         3    0    0   0.029  -19.443392  -21.660041   11.258988
   25   C      3    2.80   0.00         2    0    1   0.142  -16.846908  -22.185385   10.159168
   26   C      4    3.48   0.00         3    0    0  -0.012  -20.327784  -18.906710   10.907499
   27   O      1    0.98   0.00         2    0    1  -0.391  -15.057338  -20.887143   10.771439
   28   C      4    3.49   0.00         3    0    0  -0.060  -23.073556  -18.623251   11.761655
   29   C      4    3.49   0.00         3    0    0  -0.060  -18.613802  -17.018873   12.262433
   30   H      1    0.98   0.00         0    0    0   0.131  -19.396149  -21.123359   15.214185
   31   H      1    0.97   0.01         0    0    0   0.058  -20.796436  -22.894032   10.261213
   32   H      1    0.97   0.01         0    0    0   0.051  -20.229518  -18.496639    8.864705
   33   H      1    0.97   0.00         0    0    0   0.053  -23.264418  -19.076785   13.760986
   34   H      1    0.97   0.00         0    0    0   0.053  -23.757637  -16.699510   11.485755
   35   H      1    0.97   0.00         0    0    0   0.053  -24.320775  -19.895037   10.726085
   36   H      1    0.97   0.00         0    0    0   0.053  -18.698840  -17.270207   14.301447
   37   H      1    0.97   0.00         0    0    0   0.053  -16.648487  -17.253200   11.689846
   38   H      1    0.97   0.00         0    0    0   0.053  -19.167492  -15.076235   11.859921
   39   N      3    2.79   0.00        -3    0    1  -0.138  -16.548332  -24.243296    8.545342
   40   C      4    3.50   0.00         3    0    0   0.002  -14.080349  -25.439493    8.418730
   41   C      3    2.80   0.00         2    0    1   0.174  -12.814233  -25.301543    5.943189
   42   O      1    0.98   0.00         2    0    1  -0.360  -13.781773  -26.193494    4.066691
   43   H      1    0.98   0.00         0    0    0   0.143  -18.014759  -25.481067    8.328023
   44   H      1    0.97   0.01         0    0    0   0.090  -12.897381  -24.536204    9.871929
   45   H      1    0.97   0.01         0    0    0   0.090  -14.252314  -27.431264    9.000766
   46   N      3    2.80   0.00        -3    0    1  -0.165  -10.457744  -24.203612    5.948858
   47   C      4    3.50   0.00         3    0    0   0.007   -9.059347  -23.997632    3.667958
   48   C      3    2.79   0.00         2    0    1   0.194   -8.957302  -21.300993    2.738213
   49   O      1    0.98   0.00         2    0    1  -0.360  -10.894271  -20.072671    2.783567
   50   H      1    0.98   0.00         0    0    0   0.147   -9.826576  -23.115130    7.415285
   51   H      1    0.97   0.00         0    0    0   0.088   -7.203636  -24.815883    3.924961
   52   H      1    0.97   0.01         0    0    0   0.088  -10.051453  -25.139027    2.222318
   53   N      3    2.79   0.00         3    0    1  -0.225   -6.757661  -20.212511    1.821696
   54   C      3    2.78   0.00         2    0    1  -0.008   -4.325583  -21.442722    1.477766
   55   H      1    0.98   0.00         0    0    0   0.123   -6.867265  -18.473963    1.007224
   56   H      1    0.97   0.00         0    0    0   0.055   -2.913958  -20.499749    2.658845
   57   H      1    0.97   0.00         0    0    0   0.055   -4.403062  -23.408038    2.135391

molecular fragment  # atoms  topo charge
       1             2             0.000
       2            10            -0.000
       3            10            -0.000
       4            16             0.000
       5             7            -0.000
       6             7             0.000
       7             5             0.000


          #atoms :   57
          #bonds :   56

 bond atoms        type  in ring    R      R0    piBO    fqq  kbond(tot)  alp
 O  C     2    1      2    0     1.213   0.995   0.800   1.047  -0.252   0.584
 N  C     3    1      2    0     1.373   1.215   0.503   1.047  -0.234   0.524
 C  N     4    3      1    0     1.452   1.326 -99.000   1.047  -0.153   0.496
 C  C     5    4      1    0     1.503   1.333 -99.000   1.000  -0.160   0.475
 C  C     6    4      1    0     1.520   1.371 -99.000   1.043  -0.155   0.468
 O  C     7    5      2    0     1.213   1.031   0.856   1.047  -0.261   0.584
 H  N     8    3      1    0     1.027   0.890 -99.000   1.047  -0.176   0.551
 H  C     9    4      1    0     1.101   0.976 -99.000   1.003  -0.162   0.482
 H  C    10    6      1    0     1.091   0.976 -99.000   1.047  -0.169   0.482
 H  C    11    6      1    0     1.091   0.976 -99.000   1.047  -0.169   0.482
 H  C    12    6      1    0     1.090   0.976 -99.000   1.047  -0.169   0.482
 N  C    13    5      2    0     1.375   1.263   0.504   1.047  -0.235   0.524
 C  N    14   13      1    0     1.447   1.326 -99.000   1.047  -0.153   0.496
 C  C    15   14      1    0     1.511   1.332 -99.000   1.000  -0.160   0.475
 C  C    16   14      1    0     1.518   1.371 -99.000   1.043  -0.155   0.468
 O  C    17   15      2    0     1.213   1.031   0.856   1.047  -0.261   0.584
 H  N    18   13      1    0     1.020   0.890 -99.000   1.047  -0.176   0.551
 H  C    19   14      1    0     1.101   0.976 -99.000   1.004  -0.162   0.482
 H  C    20   16      1    0     1.090   0.976 -99.000   1.047  -0.169   0.482
 H  C    21   16      1    0     1.090   0.976 -99.000   1.047  -0.169   0.482
 H  C    22   16      1    0     1.090   0.976 -99.000   1.047  -0.169   0.482
 N  C    23   15      2    0     1.376   1.263   0.505   1.047  -0.235   0.524
 C  N    24   23      1    0     1.450   1.326 -99.000   1.047  -0.153   0.496
 C  C    25   24      1    0     1.518   1.332 -99.000   1.001  -0.160   0.475
 C  C    26   24      1    0     1.542   1.370 -99.000   1.028  -0.153   0.468
 O  C    27   25      2    0     1.214   1.030   0.860   1.047  -0.262   0.584
 C  C    28   26      1    0     1.529   1.370 -99.000   1.015  -0.151   0.468
 C  C    29   26      1    0     1.528   1.370 -99.000   1.015  -0.151   0.468
 H  N    30   23      1    0     1.018   0.890 -99.000   1.047  -0.176   0.551
 H  C    31   24      1    0     1.104   0.976 -99.000   1.007  -0.162   0.482
 H  C    32   26      1    0     1.104   0.976 -99.000   1.031  -0.166   0.482
 H  C    33   28      1    0     1.090   0.976 -99.000   1.045  -0.168   0.482
 H  C    34   28      1    0     1.090   0.976 -99.000   1.045  -0.168   0.482
 H  C    35   28      1    0     1.090   0.976 -99.000   1.045  -0.168   0.482
 H  C    36   29      1    0     1.088   0.976 -99.000   1.045  -0.168   0.482
 H  C    37   29      1    0     1.090   0.976 -99.000   1.045  -0.168   0.482
 H  C    38   29      1    0     1.090   0.976 -99.000   1.045  -0.168   0.482
 N  C    39   25      2    0     1.393   1.264   0.497   1.047  -0.233   0.524
 C  N    40   39      1    0     1.453   1.326 -99.000   1.028  -0.150   0.496
 C  C    41   40      1    0     1.473   1.333 -99.000   1.018  -0.163   0.475
 O  C    42   41      2    0     1.213   1.031   0.857   1.047  -0.262   0.584
 H  N    43   39      1    0     1.022   0.890 -99.000   1.047  -0.176   0.551
 H  C    44   40      1    0     1.101   0.977 -99.000   1.021  -0.164   0.482
 H  C    45   40      1    0     1.102   0.977 -99.000   1.021  -0.164   0.482
 N  C    46   41      2    0     1.376   1.264   0.502   1.047  -0.234   0.524
 C  N    47   46      1    0     1.420   1.326 -99.000   1.036  -0.151   0.496
 C  C    48   47      1    0     1.510   1.332 -99.000   1.009  -0.162   0.475
 O  C    49   48      2    0     1.214   1.018   0.930   1.047  -0.274   0.584
 H  N    50   46      1    0     1.022   0.890 -99.000   1.047  -0.176   0.551
 H  C    51   47      1    0     1.082   0.977 -99.000   1.016  -0.164   0.482
 H  C    52   47      1    0     1.107   0.976 -99.000   1.016  -0.164   0.482
 N  C    53   48      2    0     1.386   1.291   0.346   1.047  -0.203   0.524
 C  N    54   53      2    0     1.454   1.189   0.906   1.006  -0.302   0.524
 H  N    55   53      1    0     1.018   0.890 -99.000   1.047  -0.176   0.551
 H  C    56   54      1    0     1.094   0.949 -99.000   1.029  -0.179   0.490
 H  C    57   54      1    0     1.097   0.949 -99.000   1.029  -0.179   0.490
          #angl  :   97

 angle atoms        phi0    phi      FC  pi rings
    1    3    2   145.000 123.829   0.081 F   0
    3    4    1   115.000 120.853   0.409 F   0
    3    8    1   115.000 120.971   0.334 F   0
    3    8    4   104.000 117.529   0.181 F   0
    4    5    3   109.500 108.894   0.306 F   0
    4    6    3   109.500 112.133   0.305 F   0
    4    6    5   109.500 110.876   0.305 F   0
    4    9    3   109.500 106.410   0.253 F   0
    4    9    5   109.500 108.647   0.252 F   0
    4    9    6   109.500 109.727   0.251 F   0
    5    7    4   120.000 119.628   0.179 F   0
    5   13    4   120.000 116.709   0.243 F   0
    5   13    7   120.000 123.662   0.176 F   0
    6   10    4   109.500 111.254   0.250 F   0
    6   11    4   109.500 111.456   0.250 F   0
    6   11   10   108.600 108.459   0.208 F   0
    6   12    4   109.500 109.882   0.250 F   0
    6   12   10   108.600 107.599   0.208 F   0
    6   12   11   108.600 108.056   0.208 F   0
   13   14    5   115.000 120.638   0.407 F   0
   13   18    5   115.000 122.171   0.333 F   0
   13   18   14   104.000 117.104   0.181 F   0
   14   15   13   109.500 109.107   0.306 F   0
   14   16   13   109.500 112.344   0.305 F   0
   14   16   15   109.500 110.900   0.305 F   0
   14   19   13   109.500 106.163   0.253 F   0
   14   19   15   109.500 108.364   0.252 F   0
   14   19   16   109.500 109.783   0.251 F   0
   15   17   14   120.000 119.029   0.178 F   0
   15   23   14   120.000 117.533   0.242 F   0
   15   23   17   120.000 123.437   0.176 F   0
   16   20   14   109.500 109.914   0.250 F   0
   16   21   14   109.500 111.390   0.250 F   0
   16   21   20   108.600 107.653   0.208 F   0
   16   22   14   109.500 111.307   0.250 F   0
   16   22   20   108.600 108.010   0.208 F   0
   16   22   21   108.600 108.433   0.208 F   0
   23   24   15   115.000 120.839   0.407 F   0
   23   30   15   115.000 121.227   0.332 F   0
   23   30   24   104.000 116.556   0.181 F   0
   24   25   23   109.500 108.686   0.306 F   0
   24   26   23   109.500 113.565   0.306 F   0
   24   26   25   109.500 113.682   0.305 F   0
   24   31   23   109.500 105.472   0.253 F   0
   24   31   25   109.500 107.187   0.252 F   0
   24   31   26   109.500 107.732   0.251 F   0
   25   27   24   120.000 120.011   0.179 F   0
   25   39   24   120.000 118.748   0.244 F   0
   25   39   27   120.000 121.170   0.178 F   0
   26   28   24   109.500 110.214   0.304 F   0
   26   29   24   109.500 112.402   0.304 F   0
   26   29   28   109.500 111.175   0.305 F   0
   26   32   24   109.500 106.838   0.251 F   0
   26   32   28   109.500 108.360   0.251 F   0
   26   32   29   109.500 107.641   0.251 F   0
   28   33   26   109.500 110.703   0.251 F   0
   28   34   26   109.500 111.563   0.251 F   0
   28   34   33   108.600 107.754   0.208 F   0
   28   35   26   109.500 111.474   0.251 F   0
   28   35   33   108.600 107.215   0.208 F   0
   28   35   34   108.600 107.941   0.208 F   0
   29   36   26   109.500 111.153   0.251 F   0
   29   37   26   109.500 111.189   0.251 F   0
   29   37   36   108.600 107.525   0.208 F   0
   29   38   26   109.500 111.430   0.251 F   0
   29   38   36   108.600 107.335   0.208 F   0
   29   38   37   108.600 108.021   0.208 F   0
   39   40   25   115.000 118.091   0.412 F   0
   39   43   25   115.000 118.943   0.336 F   0
   39   43   40   104.000 113.461   0.182 F   0
   40   41   39   109.500 115.356   0.307 F   0
   40   44   39   109.500 106.845   0.253 F   0
   40   44   41   109.500 109.941   0.251 F   0
   40   45   39   109.500 109.247   0.253 F   0
   40   45   41   109.500 109.483   0.251 F   0
   40   45   44   108.600 105.490   0.209 F   0
   41   42   40   120.000 121.116   0.178 F   0
   41   46   40   120.000 115.546   0.243 F   0
   41   46   42   120.000 123.284   0.176 F   0
   46   47   41   115.000 120.195   0.409 F   0
   46   50   41   115.000 122.388   0.334 F   0
   46   50   47   104.000 115.571   0.182 F   0
   47   48   46   109.500 111.595   0.307 F   0
   47   51   46   109.500 109.601   0.253 F   0
   47   51   48   109.500 112.746   0.252 F   0
   47   52   46   109.500 107.358   0.253 F   0
   47   52   48   109.500 107.897   0.252 F   0
   47   52   51   108.600 107.395   0.209 F   0
   48   49   47   120.000 117.985   0.177 F   0
   48   53   47   120.000 122.447   0.241 F   0
   48   53   49   120.000 119.563   0.174 F   0
   53   54   48   113.000 126.947   0.042 F   0
   53   55   48   113.000 118.421   0.212 F   0
   53   55   54   113.000 113.722   0.105 F   0
   54   56   53   120.000 109.185   0.204 F   0
   54   57   53   120.000 110.585   0.204 F   0
   54   57   56   120.000 106.052   0.167 F   0
 torsion atoms        nrot   rings    phi0    phi      FC
    3    1    4    2   2      0     180.000   4.076   0.801
    3    1    8    2   2      0     180.000 166.481   1.189
    4    3    5    1   3      0     180.000  63.198   0.025
    4    3    5    8   3      0     180.000 125.931   0.033
    4    3    6    1   3      0     180.000 173.722   0.024
    4    3    6    8   3      0     180.000   2.850   0.032
    4    3    9    1   3      0     180.000  53.745   0.035
    4    3    9    8   3      0     180.000 117.126   0.047
    5    4    7    3   3      0     180.000  64.617   0.068
    5    4    7    6   3      0     180.000  59.213   0.080
    5    4    7    9   3      0     180.000 179.875   0.118
    5    4   13    3   3      0     180.000 115.140   0.042
    5    4   13    6   3      0     180.000 121.030   0.050
    5    4   13    9   3      0     180.000   0.368   0.074
    6    4   10    3   3      0     180.000 178.214   0.120
    6    4   10    5   3      0     180.000  59.830   0.148
    6    4   10    9   3      0     180.000  60.190   0.210
    6    4   11    3   3      0     180.000  57.023   0.120
    6    4   11    5   3      0     180.000 178.979   0.148
    6    4   11    9   3      0     180.000  61.002   0.210
    6    4   12    3   3      0     180.000  62.731   0.120
    6    4   12    5   3      0     180.000  59.225   0.148
    6    4   12    9   3      0     180.000 179.245   0.210
   13    5   14    4   2      0     180.000 178.492   0.630
   13    5   14    7   2      0     180.000   1.762   0.853
   13    5   18    4   2      0     180.000   1.977   0.934
   13    5   18    7   2      0     180.000 178.277   1.266
   14   13   15    5   3      0     180.000  63.929   0.023
   14   13   15   18   3      0     180.000 112.757   0.033
   14   13   16    5   3      0     180.000 172.664   0.022
   14   13   16   18   3      0     180.000  10.649   0.032
   14   13   19    5   3      0     180.000  52.657   0.033
   14   13   19   18   3      0     180.000 130.657   0.047
   15   14   17   13   3      0     180.000  58.354   0.068
   15   14   17   16   3      0     180.000  65.906   0.080
   15   14   17   19   3      0     180.000 173.530   0.118
   15   14   23   13   3      0     180.000 121.318   0.042
   15   14   23   16   3      0     180.000 114.422   0.050
   15   14   23   19   3      0     180.000   6.142   0.074
   16   14   20   13   3      0     180.000  62.985   0.120
   16   14   20   15   3      0     180.000  59.412   0.147
   16   14   20   19   3      0     180.000 179.132   0.210
   16   14   21   13   3      0     180.000 177.786   0.120
   16   14   21   15   3      0     180.000  59.817   0.147
   16   14   21   19   3      0     180.000  59.903   0.210
   16   14   22   13   3      0     180.000  56.637   0.120
   16   14   22   15   3      0     180.000 179.034   0.147
   16   14   22   19   3      0     180.000  61.247   0.210
   23   15   24   14   2      0     180.000 174.410   0.650
   23   15   24   17   2      0     180.000   5.934   0.880
   23   15   30   14   2      0     180.000   8.268   0.964
   23   15   30   17   2      0     180.000 172.076   1.306
   24   23   25   15   3      0     180.000  61.902   0.023
   24   23   25   30   3      0     180.000 104.862   0.033
   24   23   26   15   3      0     180.000 170.502   0.022
   24   23   26   30   3      0     180.000  22.734   0.031
   24   23   31   15   3      0     180.000  52.760   0.033
   24   23   31   30   3      0     180.000 140.476   0.047
   25   24   27   23   3      0     180.000  73.583   0.066
   25   24   27   26   3      0     180.000  53.946   0.078
   25   24   27   31   3      0     180.000 172.877   0.116
   25   24   39   23   3      0     180.000 103.387   0.041
   25   24   39   26   3      0     180.000 129.084   0.049
   25   24   39   31   3      0     180.000  10.153   0.073
   26   24   28   23   3      0     180.000  62.180   0.076
   26   24   28   23   1      0     180.000  62.180  -0.068
   26   24   28   25   3      0     180.000 172.863   0.093
   26   24   28   31   3      0     180.000  54.244   0.132
   26   24   29   23   3      0     180.000  62.440   0.076
   26   24   29   23   1      0     180.000  62.440  -0.068
   26   24   29   25   3      0     180.000  62.516   0.093
   26   24   29   31   3      0     180.000 178.864   0.132
   26   24   32   23   3      0     180.000 179.705   0.112
   26   24   32   25   3      0     180.000  55.339   0.138
   26   24   32   31   3      0     180.000  63.281   0.196
   28   26   33   24   3      0     180.000  61.463   0.139
   28   26   33   29   3      0     180.000  63.859   0.139
   28   26   33   32   3      0     180.000 178.042   0.207
   28   26   34   24   3      0     180.000 178.547   0.139
   28   26   34   29   3      0     180.000  56.131   0.139
   28   26   34   32   3      0     180.000  61.967   0.207
   28   26   35   24   3      0     180.000  57.790   0.139
   28   26   35   29   3      0     180.000 176.888   0.139
   28   26   35   32   3      0     180.000  58.789   0.207
   29   26   36   24   3      0     180.000  65.312   0.139
   29   26   36   28   3      0     180.000  58.778   0.139
   29   26   36   32   3      0     180.000 177.310   0.207
   29   26   37   24   3      0     180.000  54.443   0.139
   29   26   37   28   3      0     180.000 178.532   0.139
   29   26   37   32   3      0     180.000  62.936   0.207
   29   26   38   24   3      0     180.000 175.013   0.139
   29   26   38   28   3      0     180.000  60.897   0.139
   29   26   38   32   3      0     180.000  57.635   0.207
   39   25   40   24   2      0     180.000 152.286   0.552
   39   25   40   27   2      0     180.000  24.648   0.748
   39   25   43   24   2      0     180.000   8.105   0.819
   39   25   43   27   2      0     180.000 168.829   1.110
   40   39   41   25   3      0     180.000 116.554   0.022
   40   39   41   43   3      0     180.000  97.384   0.031
   40   39   44   25   3      0     180.000   5.981   0.031
   40   39   44   43   3      0     180.000 140.081   0.045
   40   39   45   25   3      0     180.000 119.639   0.031
   40   39   45   43   3      0     180.000  26.423   0.045
   41   40   42   39   3      0     180.000  59.431   0.065
   41   40   42   44   3      0     180.000 179.701   0.114
   41   40   42   45   3      0     180.000  64.251   0.114
   41   40   46   39   3      0     180.000 123.166   0.041
   41   40   46   44   3      0     180.000   2.298   0.071
   41   40   46   45   3      0     180.000 113.151   0.071
   46   41   47   40   2      0     180.000 179.358   0.609
   46   41   47   42   2      0     180.000   2.018   0.825
   46   41   50   40   2      0     180.000  16.801   0.903
   46   41   50   42   2      0     180.000 165.859   1.224
   47   46   48   41   3      0     180.000 107.795   0.022
   47   46   48   50   3      0     180.000  57.103   0.032
   47   46   51   41   3      0     180.000 126.588   0.032
   47   46   51   50   3      0     180.000  68.514   0.045
   47   46   52   41   3      0     180.000  10.240   0.032
   47   46   52   50   3      0     180.000 175.138   0.045
   48   47   49   46   3      0     180.000  44.222   0.066
   48   47   49   51   3      0     180.000 168.083   0.115
   48   47   49   52   3      0     180.000  73.489   0.115
   48   47   53   46   3      0     180.000 136.521   0.041
   48   47   53   51   3      0     180.000  12.661   0.072
   48   47   53   52   3      0     180.000 105.768   0.072
   53   48   54   47   2      0     180.000   3.530   0.341
   53   48   54   49   2      0     180.000 175.715   0.462
   53   48   55   47   2      0     180.000 171.878   0.486
   53   48   55   49   2      0     180.000   7.367   0.659
   54   53   56   48   2      0     180.000 118.940   1.385
   54   53   56   55   2      0     180.000  72.247   1.974
   54   53   57   48   2      0     180.000   2.618   1.385
   54   53   57   55   2      0     180.000 171.431   1.974
 out-of-plane atoms          phi0    phi      FC
    3    8    1    4          0.000   8.097   0.008
    5    7   13    4          0.000   0.227  23.514
   13   18    5   14          0.000  -2.998   0.039
   15   17   23   14          0.000   0.305  23.742
   23   30   15   24          0.000 -11.867  -0.020
   25   27   39   24          0.000   2.688  21.921
   39   43   25   40          0.000  31.084   0.244
   41   42   46   40          0.000  -2.400  23.875
   46   50   41   47          0.000  13.919   0.139
   48   49   53   47          0.000  -0.637  28.451
   53   55   48   54          0.000   9.289  -0.049
   54   56   57   53          0.000  55.552   0.551
          #tors  :   145
          #nmol  :   7
          #optfrag :   7

 GFN-FF setup done.

           ------------------------------------------------- 
          |                   G F N - F F                   |
          |          A general generic force-field          |
          |                  Version 1.0.3                  | 
           ------------------------------------------------- 
      * Solvation model:               ALPB
        Solvent                        water
        Parameter file                 internal GFN-FF/ALPB
        Dielectric constant                8.0200E+01
        Reference state                gsolv [1 M gas/solution]
        Free energy shift                  3.6494E-04 Eh       2.2900E-01 kcal/mol
        Temperature                        2.9815E+02 K
        Density                            1.0000E+00 kg/L
        Solvent mass                       1.8000E+01 g/mol
        Interaction kernel             P16
        Born radius scaling (c1)           1.5056E+00
        Born radii integrator          GBOBC
        Born offset                        0.0000E+00 a0       0.0000E+00 AA
        H-bond correction              true
        Ion screening                  false
        Surface tension                    1.0000E-05 Eh       1.5569E+01 dyn/cm
        Grid points                               230 per atom
          Number of HB bonds (bound hydrogen)     539
          Number of HB bonds (unbound hydrogen)   56
          Number of XB bonds                      0

 E+G (total)                   0 d,  0 h,  0 min,  0.001 sec
 distance/D3 list               ...        0 min,  0.000 sec (  0.708%)
 non bonded repulsion           ...        0 min,  0.000 sec (  2.216%)
 dCN                            ...        0 min,  0.000 sec (  5.943%)
 EEQ energy and q               ...        0 min,  0.000 sec (  4.404%)
 D3                             ...        0 min,  0.000 sec (  9.583%)
 EEQ gradient                   ...        0 min,  0.000 sec (  4.569%)
 bonds                          ...        0 min,  0.000 sec (  0.785%)
 bend and torsion               ...        0 min,  0.000 sec (  3.551%)
 bonded ATM                     ...        0 min,  0.000 sec (  1.532%)
 HB/XB (incl list setup)        ...        0 min,  0.000 sec (  6.179%)
 GBSA                           ...        0 min,  0.001 sec ( 63.436%)

         :::::::::::::::::::::::::::::::::::::::::::::::::::::
         ::                     SUMMARY                     ::
         :::::::::::::::::::::::::::::::::::::::::::::::::::::
         :: total energy              -9.785362274259 Eh    ::
         :: total w/o Gsolv           -9.737616816461 Eh    ::
         :: total w/o Gsasa/hb        -9.778948941007 Eh    ::
         :: gradient norm              0.176919548703 Eh/a0 ::
         ::.................................................::
         :: bond energy               -9.929283842757 Eh    ::
         :: angle energy               0.033611869108 Eh    ::
         :: torsion energy             0.018648109973 Eh    ::
         :: repulsion energy           0.611681313072 Eh    ::
         :: electrostat energy        -0.409132271614 Eh    ::
         :: dispersion energy         -0.045093675120 Eh    ::
         :: HB energy                 -0.000317084663 Eh    ::
         :: XB energy                  0.000000000000 Eh    ::
         :: bonded atm energy         -0.017731234462 Eh    ::
         :: external energy            0.000000000000 Eh    ::
         :: -> Gsolv                  -0.047745457798 Eh    ::
         ::    -> Gborn               -0.041332124546 Eh    ::
         ::    -> Gsasa                0.007756967924 Eh    ::
         ::    -> Ghb                 -0.014535240431 Eh    ::
         ::    -> Gshift               0.000364939255 Eh    ::
         :: add. restraining           0.000000000000 Eh    ::
         :: total charge              -0.000000000000 e     ::
         ::.................................................::
         :: atomisation energy         0.000000000000 Eh    ::
         :::::::::::::::::::::::::::::::::::::::::::::::::::::

      ----------------------------------------------------------- 
     |                   =====================                   |
     |                        A N C O P T                        |
     |                   =====================                   |
     |               Approximate Normal Coordinate               |
     |                Rational Function Optimizer                |
      ----------------------------------------------------------- 

          ...................................................
          :                      SETUP                      :
          :.................................................:
          :   optimization level         verytight          :
          :   max. optcycles                    10          :
          :   ANC micro-cycles                  10          :
          :   degrees of freedom               165          :
          :.................................................:
          :   RF solver                   davidson          :
          :   write xtbopt.log                true          :
          :   linear?                        false          :
          :   energy convergence         0.1000000E-06 Eh   :
          :   grad. convergence          0.2000000E-03 Eh/α :
          :   maxmium RF displ.          1.0000000          :
          :   Hlow (freq-cutoff)         0.1000000E-01      :
          :   Hmax (freq-cutoff)         5.0000000          :
          :   S6 in model hess.         20.0000000          :
          ...................................................

generating ANC from model Hessian ...
Using GFN-FF Lindh-Hessian
 Shifting diagonal of input Hessian by    8.7485938466639653E-003
 Lowest  eigenvalues of input Hessian
    0.000000    0.000000    0.000000    0.000000    0.000000    0.000000
    0.010000    0.010656    0.011481    0.019035    0.020894    0.021772
    0.024514    0.036177    0.037846    0.041854    0.055330    0.060769
 Highest eigenvalues
    3.570103    3.632837    3.761932    3.971276    4.094158    4.424500


........................................................................
.............................. CYCLE    1 ..............................
........................................................................
     iter. time                 ...        0 min,  0.001 sec
 * total energy  :    -9.7853623 Eh     change        0.0000000E+00 Eh
   gradient norm :     0.1769195 Eh/α   predicted     0.0000000E+00 (    NaN%)
   displ. norm   :     0.1078693 α      lambda       -0.1406933E-01
   maximum displ.:     0.0309638 α      in ANC's #65, #90, #154, ...

........................................................................
.............................. CYCLE    2 ..............................
........................................................................
     iter. time                 ...        0 min,  0.001 sec
 * total energy  :    -9.7950122 Eh     change       -0.9649903E-02 Eh
   gradient norm :     0.0712054 Eh/α   predicted    -0.7120463E-02 ( -26.21%)
   displ. norm   :     0.0733520 α      lambda       -0.4026987E-02
   maximum displ.:     0.0282002 α      in ANC's #63, #90, #154, ...

........................................................................
.............................. CYCLE    3 ..............................
........................................................................
     iter. time                 ...        0 min,  0.001 sec
 * total energy  :    -9.7972353 Eh     change       -0.2223112E-02 Eh
   gradient norm :     0.0220570 Eh/α   predicted    -0.2024418E-02 (  -8.94%)
   displ. norm   :     0.0277455 α      lambda       -0.3687881E-03
   maximum displ.:     0.0151247 α      in ANC's #63, #64, #39, ...

........................................................................
.............................. CYCLE    4 ..............................
........................................................................
     iter. time                 ...        0 min,  0.001 sec
 * total energy  :    -9.7975131 Eh     change       -0.2777631E-03 Eh
   gradient norm :     0.0126406 Eh/α   predicted    -0.1909488E-03 ( -31.25%)
   displ. norm   :     0.0292001 α      lambda       -0.2053074E-03
   maximum displ.:     0.0163520 α      in ANC's #63, #27, #64, ...

........................................................................
.............................. CYCLE    5 ..............................
........................................................................
     iter. time                 ...        0 min,  0.001 sec
 * total energy  :    -9.7976264 Eh     change       -0.1133918E-03 Eh
   gradient norm :     0.0035830 Eh/α   predicted    -0.1027655E-03 (  -9.37%)
   displ. norm   :     0.0075782 α      lambda       -0.1249450E-04
   maximum displ.:     0.0036536 α      in ANC's #63, #9, #8, ...

........................................................................
.............................. CYCLE    6 ..............................
........................................................................
     iter. time                 ...        0 min,  0.001 sec
 * total energy  :    -9.7976354 Eh     change       -0.8982215E-05 Eh
   gradient norm :     0.0019894 Eh/α   predicted    -0.6270988E-05 ( -30.18%)
   displ. norm   :     0.0136869 α      lambda       -0.7230003E-05
   maximum displ.:     0.0054983 α      in ANC's #8, #9, #63, ...

........................................................................
.............................. CYCLE    7 ..............................
........................................................................
     iter. time                 ...        0 min,  0.001 sec
 * total energy  :    -9.7976400 Eh     change       -0.4605137E-05 Eh
   gradient norm :     0.0015290 Eh/α   predicted    -0.3618335E-05 ( -21.43%)
   displ. norm   :     0.0048418 α      lambda       -0.1261175E-05
   maximum displ.:     0.0025913 α      in ANC's #2, #8, #10, ...

........................................................................
.............................. CYCLE    8 ..............................
........................................................................
     iter. time                 ...        0 min,  0.001 sec
 * total energy  :    -9.7976416 Eh     change       -0.1597555E-05 Eh
   gradient norm :     0.0006582 Eh/α   predicted    -0.7081850E-06 ( -55.67%)
   displ. norm   :     0.0130861 α      lambda       -0.1399217E-05
   maximum displ.:     0.0078845 α      in ANC's #2, #8, #1, ...

........................................................................
.............................. CYCLE    9 ..............................
........................................................................
     iter. time                 ...        0 min,  0.001 sec
 * total energy  :    -9.7976430 Eh     change       -0.1406927E-05 Eh
   gradient norm :     0.0005262 Eh/α   predicted    -0.7163750E-06 ( -49.08%)
   displ. norm   :     0.0126567 α      lambda       -0.6296319E-06
   maximum displ.:     0.0084469 α      in ANC's #2, #8, #1, ...

........................................................................
.............................. CYCLE   10 ..............................
........................................................................
     iter. time                 ...        0 min,  0.001 sec
 * total energy  :    -9.7976438 Eh     change       -0.7369237E-06 Eh
   gradient norm :     0.0006348 Eh/α   predicted    -0.3187102E-06 ( -56.75%)
   displ. norm   :     0.0189807 α      lambda       -0.7885379E-06
   maximum displ.:     0.0132607 α      in ANC's #2, #1, #8, ...

   *** FAILED TO CONVERGE GEOMETRY OPTIMIZATION IN 10 ITERATIONS ***


 ANCopt (total)                0 d,  0 h,  0 min,  0.015 sec
 optimizer setup                ...        0 min,  0.000 sec (  0.786%)
 model hessian                  ...        0 min,  0.001 sec (  3.395%)
 ANC generation                 ...        0 min,  0.002 sec ( 11.131%)
 coordinate transformation      ...        0 min,  0.000 sec (  0.412%)
 single point calculation       ...        0 min,  0.012 sec ( 75.994%)
 optimization log               ...        0 min,  0.001 sec (  4.442%)
 hessian update                 ...        0 min,  0.000 sec (  0.648%)
 rational function              ...        0 min,  0.000 sec (  1.997%)

================
 final structure:
================
ATOM      1  C   HIS A   5     -13.494 -14.782  12.039  1.00  0.00           C  
ATOM      2  O   HIS A   5     -12.319 -14.941  12.251  1.00  0.00           O  
ATOM      3  N   ALA A   6     -14.120 -14.891  10.854  1.00  0.00           N  
ATOM      4  CA  ALA A   6     -13.374 -15.289   9.661  1.00  0.00           C  
ATOM      5  C   ALA A   6     -12.374 -14.213   9.342  1.00  0.00           C  
ATOM      6  CB  ALA A   6     -14.280 -15.557   8.472  1.00  0.00           C  
ATOM      7  O   ALA A   6     -12.764 -13.110   9.020  1.00  0.00           O  
ATOM      8  H   ALA A   6     -15.143 -14.889  10.780  1.00  0.00           H  
ATOM      9  HA  ALA A   6     -12.826 -16.207   9.928  1.00  0.00           H  
ATOM     10  HB1 ALA A   6     -13.705 -15.879   7.603  1.00  0.00           H  
ATOM     11  HB2 ALA A   6     -15.019 -16.326   8.700  1.00  0.00           H  
ATOM     12  HB3 ALA A   6     -14.812 -14.646   8.199  1.00  0.00           H  
ATOM     13  N   ALA A   7     -11.046 -14.548   9.445  1.00  0.00           N  
ATOM     14  CA  ALA A   7     -10.012 -13.585   9.123  1.00  0.00           C  
ATOM     15  C   ALA A   7     -10.109 -13.228   7.658  1.00  0.00           C  
ATOM     16  CB  ALA A   7      -8.624 -14.094   9.467  1.00  0.00           C  
ATOM     17  O   ALA A   7     -10.011 -14.110   6.830  1.00  0.00           O  
ATOM     18  H   ALA A   7     -10.742 -15.491   9.693  1.00  0.00           H  
ATOM     19  HA  ALA A   7     -10.239 -12.686   9.716  1.00  0.00           H  
ATOM     20  HB1 ALA A   7      -8.393 -14.977   8.871  1.00  0.00           H  
ATOM     21  HB2 ALA A   7      -7.863 -13.343   9.256  1.00  0.00           H  
ATOM     22  HB3 ALA A   7      -8.553 -14.371  10.520  1.00  0.00           H  
ATOM     23  N   VAL A   8     -10.312 -11.906   7.337  1.00  0.00           N  
ATOM     24  CA  VAL A   8     -10.292 -11.467   5.953  1.00  0.00           C  
ATOM     25  C   VAL A   8      -8.916 -11.743   5.379  1.00  0.00           C  
ATOM     26  CB  VAL A   8     -10.755 -10.005   5.770  1.00  0.00           C  
ATOM     27  O   VAL A   8      -7.966 -11.072   5.729  1.00  0.00           O  
ATOM     28  CG1 VAL A   8     -12.208  -9.851   6.220  1.00  0.00           C  
ATOM     29  CG2 VAL A   8      -9.846  -9.009   6.487  1.00  0.00           C  
ATOM     30  H   VAL A   8     -10.262 -11.177   8.049  1.00  0.00           H  
ATOM     31  HA  VAL A   8     -11.007 -12.116   5.427  1.00  0.00           H  
ATOM     32  HB  VAL A   8     -10.701  -9.788   4.688  1.00  0.00           H  
ATOM     33 HG11 VAL A   8     -12.310 -10.090   7.278  1.00  0.00           H  
ATOM     34 HG12 VAL A   8     -12.566  -8.831   6.074  1.00  0.00           H  
ATOM     35 HG13 VAL A   8     -12.870 -10.521   5.671  1.00  0.00           H  
ATOM     36 HG21 VAL A   8      -9.893  -9.140   7.567  1.00  0.00           H  
ATOM     37 HG22 VAL A   8      -8.805  -9.138   6.187  1.00  0.00           H  
ATOM     38 HG23 VAL A   8     -10.133  -7.979   6.272  1.00  0.00           H  
ATOM     39  N   GLY A   9      -8.757 -12.827   4.524  1.00  0.00           N  
ATOM     40  CA  GLY A   9      -7.449 -13.467   4.462  1.00  0.00           C  
ATOM     41  C   GLY A   9      -6.781 -13.391   3.146  1.00  0.00           C  
ATOM     42  O   GLY A   9      -7.293 -13.863   2.153  1.00  0.00           O  
ATOM     43  H   GLY A   9      -9.534 -13.483   4.407  1.00  0.00           H  
ATOM     44  HA2 GLY A   9      -6.825 -12.986   5.224  1.00  0.00           H  
ATOM     45  HA3 GLY A   9      -7.542 -14.517   4.763  1.00  0.00           H  
ATOM     46  N   GLY A  10      -5.536 -12.809   3.147  1.00  0.00           N  
ATOM     47  CA  GLY A  10      -4.804 -12.696   1.929  1.00  0.00           C  
ATOM     48  C   GLY A  10      -4.754 -11.268   1.441  1.00  0.00           C  
ATOM     49  O   GLY A  10      -5.767 -10.619   1.473  1.00  0.00           O  
ATOM     50  H   GLY A  10      -5.203 -12.231   3.922  1.00  0.00           H  
ATOM     51  HA2 GLY A  10      -3.813 -13.131   2.077  1.00  0.00           H  
ATOM     52  HA3 GLY A  10      -5.319 -13.307   1.177  1.00  0.00           H  
ATOM     53  N   GLY A  11      -3.547 -10.736   0.954  1.00  0.00           N  
ATOM     54  CA  GLY A  11      -2.306 -11.307   0.810  1.00  0.00           C  
ATOM     55  H   GLY A  11      -3.629  -9.786   0.540  1.00  0.00           H  
ATOM     56  HA2 GLY A  11      -1.537 -10.845   1.408  1.00  0.00           H  
ATOM     57  HA3 GLY A  11      -2.341 -12.364   1.113  1.00  0.00           H  
END

 Bond Distances (Angstroems)
 ---------------------------
C1-O2=1.2039         C1-N3=1.3447         O2-C1=1.2039         N3-C1=1.3447         N3-C4=1.4615         N3-H8=1.0255         
C4-N3=1.4615         C4-C5=1.5038         C4-C6=1.5179         C4-H9=1.1022         C5-C4=1.5038         C5-O7=1.2134         
C5-N13=1.3737        C6-C4=1.5179         C6-H10=1.0907        C6-H11=1.0905        C6-H12=1.0898        O7-C5=1.2134         
H8-N3=1.0255         H9-C4=1.1022         H10-C6=1.0907        H11-C6=1.0905        H12-C6=1.0898        N13-C5=1.3737        
N13-C14=1.4486       N13-H18=1.0216       C14-N13=1.4486       C14-C15=1.5118       C14-C16=1.5174       C14-H19=1.1007       
C15-C14=1.5118       C15-O17=1.2130       C15-N23=1.3752       C16-C14=1.5174       C16-H20=1.0897       C16-H21=1.0905       
C16-H22=1.0901       O17-C15=1.2130       H18-N13=1.0216       H19-C14=1.1007       H20-C16=1.0897       H21-C16=1.0905       
H22-C16=1.0901       N23-C15=1.3752       N23-C24=1.4528       N23-H30=1.0196       C24-N23=1.4528       C24-C25=1.5167       
C24-C26=1.5444       C24-H31=1.0996       C25-C24=1.5167       C25-O27=1.2146       C25-N39=1.3901       C26-C24=1.5444       
C26-C28=1.5283       C26-C29=1.5276       C26-H32=1.1042       O27-C25=1.2146       C28-C26=1.5283       C28-H33=1.0898       
C28-H34=1.0904       C28-H35=1.0904       C29-C26=1.5276       C29-H36=1.0887       C29-H37=1.0905       C29-H38=1.0906       
H30-N23=1.0196       H31-C24=1.0996       H32-C26=1.1042       H33-C28=1.0898       H34-C28=1.0904       H35-C28=1.0904       
H36-C29=1.0887       H37-C29=1.0905       H38-C29=1.0906       N39-C25=1.3901       N39-C40=1.4565       N39-H43=1.0234       
C40-N39=1.4565       C40-C41=1.4784       C40-H44=1.0960       C40-H45=1.0965       C41-C40=1.4784       C41-O42=1.2130       
C41-N46=1.3743       O42-C41=1.2130       H43-N39=1.0234       H44-C40=1.0960       H45-C40=1.0965       N46-C41=1.3743       
N46-C47=1.4251       N46-H50=1.0225       C47-N46=1.4251       C47-C48=1.5096       C47-H51=1.0926       C47-H52=1.0973       
C48-C47=1.5096       C48-O49=1.2041       C48-N53=1.4066       O49-C48=1.2041       H50-N46=1.0225       H51-C47=1.0926       
H52-C47=1.0973       N53-C48=1.4066       N53-C54=1.3732       N53-H55=1.0389       C54-N53=1.3732       C54-H56=1.0783       
C54-H57=1.1001       H55-N53=1.0389       H56-C54=1.0783       H57-C54=1.1001       
 C  H  Rav=1.0931 sigma=0.0057  Rmin=1.0783  Rmax=1.1042    22
 C  C  Rav=1.5156 sigma=0.0165  Rmin=1.4784  Rmax=1.5444    10
 N  H  Rav=1.0253 sigma=0.0063  Rmin=1.0196  Rmax=1.0389     6
 N  C  Rav=1.4069 sigma=0.0388  Rmin=1.3447  Rmax=1.4615    12
 O  C  Rav=1.2103 sigma=0.0045  Rmin=1.2039  Rmax=1.2146     6

 selected bond angles (degree)
 --------------------
N3-C1-O2=126.77                C4-N3-C1=120.25                H8-N3-C1=121.84                H8-N3-C4=116.79                
C5-C4-N3=108.55                C6-C4-N3=112.52                C6-C4-C5=110.91                H9-C4-N3=106.45                
H9-C4-C5=108.44                H9-C4-C6=109.80                O7-C5-C4=119.51                N13-C5-C4=116.92               
N13-C5-O7=123.56               H10-C6-C4=111.25               H11-C6-C4=111.43               H11-C6-H10=108.43              
H12-C6-C4=109.87               H12-C6-H10=107.64              H12-C6-H11=108.08              

 selected dihedral angles (degree)
 ---------------------------------
C4-N3-C1-O2=  2.51            H8-N3-C1-O2=170.00            C5-C4-N3-C1=294.60            C5-C4-N3-H8=126.50            
C6-C4-N3-C1=171.46            C6-C4-N3-H8=  3.36            H9-C4-N3-C1= 51.15            H9-C4-N3-H8=243.05            
O7-C5-C4-N3=295.22            O7-C5-C4-C6= 59.32            O7-C5-C4-H9=179.96            N13-C5-C4-N3=114.78           
N13-C5-C4-C6=238.87           N13-C5-C4-H9=359.52           H10-C6-C4-N3=181.57           H10-C6-C4-C5= 59.77           
H10-C6-C4-H9=299.93           H11-C6-C4-N3=302.71           H11-C6-C4-C5=180.91           H11-C6-C4-H9= 61.07           
H12-C6-C4-N3= 62.47           H12-C6-C4-C5=300.67           H12-C6-C4-H9=180.83           
           -------------------------------------------------
          |                Final Singlepoint                |
           -------------------------------------------------
         :::::::::::::::::::::::::::::::::::::::::::::::::::::
         ::                     SUMMARY                     ::
         :::::::::::::::::::::::::::::::::::::::::::::::::::::
         :: total energy              -9.797644601024 Eh    ::
         :: total w/o Gsolv           -9.750227316095 Eh    ::
         :: total w/o Gsasa/hb        -9.791463691978 Eh    ::
         :: gradient norm              0.000461815460 Eh/a0 ::
         ::.................................................::
         :: bond energy               -9.952036686202 Eh    ::
         :: angle energy               0.031604295606 Eh    ::
         :: torsion energy             0.020584584156 Eh    ::
         :: repulsion energy           0.617395471123 Eh    ::
         :: electrostat energy        -0.409718401967 Eh    ::
         :: dispersion energy         -0.045106035239 Eh    ::
         :: HB energy                 -0.000319242785 Eh    ::
         :: XB energy                  0.000000000000 Eh    ::
         :: bonded atm energy         -0.017580237436 Eh    ::
         :: external energy            0.000000000000 Eh    ::
         :: -> Gsolv                  -0.047417284930 Eh    ::
         ::    -> Gborn               -0.041236375883 Eh    ::
         ::    -> Gsasa                0.007798754057 Eh    ::
         ::    -> Ghb                 -0.014344602359 Eh    ::
         ::    -> Gshift               0.000364939255 Eh    ::
         :: add. restraining           0.004948936651 Eh    ::
         :: total charge               0.000000000000 e     ::
         ::.................................................::
         :: atomisation energy         0.000000000000 Eh    ::
         :::::::::::::::::::::::::::::::::::::::::::::::::::::

           -------------------------------------------------
          |                Property Printout                |
           -------------------------------------------------
           -------------------------------------------------
          |                Geometry Summary                 |
           -------------------------------------------------

      molecular mass/u    :      412.4415001
   center of mass at/Å    :       -9.2973332     -12.7695405       6.2386199
  moments of inertia/u·Å² :        0.1431258E+04   0.9218622E+04   0.9730618E+04
rotational constants/cm⁻¹ :        0.1177819E-01   0.1828650E-02   0.1732432E-02

 * 50 selected distances

     #   Z          #   Z                                           value/Å
     1   6  C       3   7  N                                      1.3447157
     3   7  N       4   6  C                                      1.4614676
     4   6  C       6   6  C                                      1.5179187
     5   6  C       7   8  O                                      1.2134211
     3   7  N       8   1  H                                      1.0255325
     4   6  C       9   1  H                                      1.1021622
     6   6  C      10   1  H                                      1.0907361
     6   6  C      11   1  H                                      1.0905328
     6   6  C      12   1  H                                      1.0897923
     5   6  C      13   7  N                                      1.3737264
    13   7  N      14   6  C                                      1.4485639
    14   6  C      16   6  C                                      1.5174122
    15   6  C      17   8  O                                      1.2129860
    13   7  N      18   1  H                                      1.0215614
    14   6  C      19   1  H                                      1.1007084
    16   6  C      20   1  H                                      1.0896710
    16   6  C      21   1  H                                      1.0904743
    16   6  C      22   1  H                                      1.0901207
    15   6  C      23   7  N                                      1.3752202
    23   7  N      24   6  C                                      1.4527819
    25   6  C      27   8  O                                      1.2145776
    26   6  C      28   6  C                                      1.5282646 (max)
    26   6  C      29   6  C                                      1.5276091
    23   7  N      30   1  H                                      1.0196269 (min)
    24   6  C      31   1  H                                      1.0995519
    26   6  C      32   1  H                                      1.1042171
    28   6  C      33   1  H                                      1.0898005
    28   6  C      34   1  H                                      1.0903787
    28   6  C      35   1  H                                      1.0904123
    29   6  C      36   1  H                                      1.0886624
    29   6  C      37   1  H                                      1.0904668
    29   6  C      38   1  H                                      1.0905556
    25   6  C      39   7  N                                      1.3901249
    39   7  N      40   6  C                                      1.4565214
    40   6  C      41   6  C                                      1.4783840
    41   6  C      42   8  O                                      1.2129863
    39   7  N      43   1  H                                      1.0234086
    40   6  C      44   1  H                                      1.0960281
    40   6  C      45   1  H                                      1.0965375
    41   6  C      46   7  N                                      1.3742722
    46   7  N      47   6  C                                      1.4251165
    48   6  C      49   8  O                                      1.2041091
    46   7  N      50   1  H                                      1.0225296
    47   6  C      51   1  H                                      1.0926202
    47   6  C      52   1  H                                      1.0973047
    48   6  C      53   7  N                                      1.4065544
    53   7  N      54   6  C                                      1.3732491
    53   7  N      55   1  H                                      1.0388747
    54   6  C      56   1  H                                      1.0782883
    54   6  C      57   1  H                                      1.1000760

 * 5 distinct bonds (by element types)

   Z      Z             #   av. dist./Å        max./Å        min./Å
   1 H    6 C          22     1.0931408     1.1042171     1.0782883
   6 C    6 C           5     1.5139177     1.5282646     1.4783840
   1 H    7 N           6     1.0252556     1.0388747     1.0196269
   6 C    7 N          12     1.4068595     1.4614676     1.3447157
   6 C    8 O           5     1.2116160     1.2145776     1.2041091


optimized geometry written to: xtbopt.pdb


           -------------------------------------------------
          | TOTAL ENERGY               -9.797644601024 Eh   |
          | GRADIENT NORM               0.000461815460 Eh/α |
           -------------------------------------------------
########################################################################
[WARNING] Runtime exception occurred
-1- gfnff_setup: Could not read topology file.
########################################################################

------------------------------------------------------------------------
 unit  open   action     filename
   10 false : read       xtb_settings.inp
   10 false : read       substructure_15.pdb
   10 false : read       xtb_settings.inp
   10 false : written    gfnff_topo
   10 false : written    gfnff_adjacency
   10 false : written    gfnff_charges
   10 false : deleted    .xtboptok
   10 false : replaced   xtbopt.log
   11 false : created    .xtboptok
   11 false : replaced   gfnff_charges
   10 false : replaced   xtbopt.pdb

------------------------------------------------------------------------
 * finished run on 2025/05/27 at 09:37:37.717     
------------------------------------------------------------------------
 total:
 * wall-time:     0 d,  0 h,  0 min,  0.025 sec
 *  cpu-time:     0 d,  0 h,  0 min,  0.025 sec
 * ratio c/w:     0.999 speedup
 SCF:
 * wall-time:     0 d,  0 h,  0 min,  0.002 sec
 *  cpu-time:     0 d,  0 h,  0 min,  0.002 sec
 * ratio c/w:     1.000 speedup
 ANC optimizer:
 * wall-time:     0 d,  0 h,  0 min,  0.017 sec
 *  cpu-time:     0 d,  0 h,  0 min,  0.017 sec
 * ratio c/w:     1.000 speedup

