57
 energy: -9.785489384561 gnorm: 0.178215636926 xtb: 6.6.1 (8d0f1dd)
 C         -13.49300000000000      -14.73800000000000       12.05500000000000
 O         -12.31400000000000      -14.95700000000000       12.23800000000000
 N         -14.12100000000000      -14.89900000000000       10.84400000000000
 C         -13.37200000000000      -15.28800000000000        9.66200000000000
 C         -12.37400000000000      -14.21100000000000        9.34200000000000
 C         -14.27900000000000      -15.55700000000000        8.47200000000000
 O         -12.76400000000000      -13.10900000000000        9.01900000000000
 H         -15.14600000000000      -14.89000000000000       10.77500000000000
 H         -12.82600000000000      -16.20600000000000        9.92800000000000
 H         -13.70500000000000      -15.87800000000000        7.60200000000000
 H         -15.01900000000000      -16.32500000000000        8.70000000000000
 H         -14.81100000000000      -14.64600000000000        8.19800000000000
 N         -11.04600000000000      -14.54300000000000        9.45700000000000
 C         -10.01200000000000      -13.58800000000000        9.12300000000000
 C         -10.13300000000000      -13.23100000000000        7.65600000000000
 C          -8.62100000000000      -14.10000000000000        9.44300000000000
 O          -9.99300000000000      -14.10800000000000        6.82900000000000
 H         -10.74300000000000      -15.48600000000000        9.70500000000000
 H         -10.22500000000000      -12.68400000000000        9.71700000000000
 H          -8.40500000000000      -14.98600000000000        8.84600000000000
 H          -7.86000000000000      -13.35300000000000        9.21100000000000
 H          -8.53000000000000      -14.37000000000000       10.49500000000000
 N         -10.39400000000000      -11.91700000000000        7.33300000000000
 C         -10.28900000000000      -11.46200000000000        5.95800000000000
 C          -8.87600000000000      -11.75000000000000        5.47300000000000
 C         -10.71300000000000       -9.99500000000000        5.75900000000000
 O          -7.93700000000000      -11.21900000000000        6.03100000000000
 C         -12.17900000000000       -9.81000000000000        6.14900000000000
 C          -9.81100000000000       -9.02400000000000        6.51900000000000
 H         -10.32500000000000      -11.18800000000000        8.04100000000000
 H         -10.97600000000000      -12.10300000000000        5.38000000000000
 H         -10.60900000000000       -9.77500000000000        4.68200000000000
 H         -12.33100000000000      -10.05400000000000        7.20000000000000
 H         -12.50800000000000       -8.78200000000000        5.99600000000000
 H         -12.83200000000000      -10.46200000000000        5.56800000000000
 H          -9.91200000000000       -9.15200000000000        7.59500000000000
 H          -8.76100000000000       -9.18200000000000        6.26800000000000
 H         -10.05900000000000       -7.98700000000000        6.29100000000000
 N          -8.67600000000000      -12.67600000000000        4.45300000000000
 C          -7.45100000000000      -13.46200000000000        4.45500000000000
 C          -6.72200000000000      -13.48300000000000        3.17400000000000
 O          -7.09600000000000      -14.18000000000000        2.25400000000000
 H          -9.47700000000000      -13.18300000000000        4.07400000000000
 H          -6.80700000000000      -13.05200000000000        5.24600000000000
 H          -7.68800000000000      -14.49000000000000        4.76400000000000
 N          -5.60200000000000      -12.69300000000000        3.11100000000000
 C          -4.79400000000000      -12.69900000000000        1.94100000000000
 C          -4.78500000000000      -11.34900000000000        1.26600000000000
 O          -5.84600000000000      -10.77500000000000        1.13000000000000
 H          -5.43600000000000      -11.93200000000000        3.77400000000000
 H          -3.79800000000000      -13.04300000000000        2.19900000000000
 H          -5.22800000000000      -13.43200000000000        1.24100000000000
 N          -3.62600000000000      -10.76800000000000        0.78300000000000
 C          -2.28900000000000      -11.34700000000000        0.78200000000000
 H          -3.70500000000000       -9.91700000000000        0.23100000000000
 H          -1.63500000000000      -10.74600000000000        1.42000000000000
 H          -2.30400000000000      -12.35400000000000        1.21500000000000
57
 energy: -9.795204534305 gnorm: 0.072396194405 xtb: 6.6.1 (8d0f1dd)
 C         -13.49514402090746      -14.74877295145747       12.04716173064453
 O         -12.31814468926332      -14.94839361516315       12.23993825966547
 N         -14.11927837283046      -14.89702088845902       10.84974745829416
 C         -13.37348178563817      -15.28740263187329        9.66195541931479
 C         -12.37376325289589      -14.21056788109649        9.34256267044884
 C         -14.28003031347234      -15.55494490134957        8.47194853053159
 O         -12.76369898817773      -13.10837967817398        9.01930330280934
 H         -15.14228214837559      -14.89241693139509       10.77963942090063
 H         -12.82681382137170      -16.20623231371056        9.92675626544392
 H         -13.70607793489538      -15.87601142569749        7.60186622709997
 H         -15.02021637351674      -16.32287832750110        8.69933698314804
 H         -14.81145010301922      -14.64365532410644        8.19846096435369
 N         -11.04602616559475      -14.54244453476864        9.45765315265248
 C         -10.01188789094336      -13.58632478240999        9.12276361887823
 C         -10.13312879698455      -13.23092821338572        7.65605085098275
 C          -8.62091892767795      -14.10001404527177        9.44323460521522
 O          -9.99282771635600      -14.10816735181388        6.82958358979374
 H         -10.74297492893665      -15.48575653297333        9.70516834462137
 H         -10.22494491841331      -12.68345609133882        9.71707899482347
 H          -8.40514839740748      -14.98613158405387        8.84645782871782
 H          -7.85977219362458      -13.35370682874975        9.21132688129195
 H          -8.53006401344349      -14.37013709528289       10.49532187244811
 N         -10.39375407848492      -11.91748214561498        7.33228976849944
 C         -10.28805780221259      -11.46459790261157        5.95597500709185
 C          -8.87577695229408      -11.75009785625694        5.47239457049487
 C         -10.71279345288905       -9.99561409333485        5.75887547547511
 O          -7.93705212968461      -11.21909525332810        6.03105355517076
 C         -12.17885417316493       -9.81039787638430        6.14871722916676
 C          -9.81077530496163       -9.02417401003854        6.51864494179019
 H         -10.32495670061154      -11.18761574125155        8.04026917197623
 H         -10.97464344098920      -12.10350713544143        5.37980498750702
 H         -10.60897003062827       -9.77512909256630        4.68189792486093
 H         -12.33093337670964      -10.05432706090643        7.19987025249196
 H         -12.50754953933969       -8.78210287153518        5.99583749571021
 H         -12.83200390480123      -10.46219853869472        5.56772276865619
 H          -9.91191200198558       -9.15230480745230        7.59488970302283
 H          -8.76098904443182       -9.18187395658670        6.26791562386526
 H         -10.05921719083839       -7.98709052999083        6.29081237094843
 N          -8.67588809421313      -12.67627873138116        4.45345770055437
 C          -7.45148777899137      -13.46364055115656        4.45885915198163
 C          -6.72254380404837      -13.48377416418097        3.17406594287891
 O          -7.09586098818422      -14.18176474244882        2.25456478154514
 H          -9.47711638837539      -13.18332067333094        4.07395514878325
 H          -6.80686329698834      -13.05357147214769        5.24612947363220
 H          -7.68781228084062      -14.49073332790218        4.76463745587634
 N          -5.60231368244315      -12.69469436858772        3.11060280635918
 C          -4.79637519200465      -12.70111151219890        1.93639194761546
 C          -4.78602156439267      -11.35388686971474        1.26419330493622
 O          -5.84254257625155      -10.77841535751232        1.12886556154628
 H          -5.43593206974308      -11.93398092210598        3.77376003261960
 H          -3.79724919409464      -13.04614466365043        2.19918251349874
 H          -5.22772660287852      -13.43478081182871        1.24143195033894
 N          -3.60369730653537      -10.78154905932044        0.78747074426540
 C          -2.30988841435988      -11.32310166082878        0.79104375460021
 H          -3.69548369702098       -9.92077770959927        0.24114041209993
 H          -1.63515868706386      -10.74279231694164        1.41467133640107
 H          -2.31272350379690      -12.34032828313572        1.19828816165896
57
 energy: -9.797431717552 gnorm: 0.021897313112 xtb: 6.6.1 (8d0f1dd)
 C         -13.49548557432612      -14.76287018156772       12.04151677315497
 O         -12.31842511664929      -14.93822301326675       12.24338973281954
 N         -14.11822932267453      -14.89337275507076       10.85389716077324
 C         -13.37442061575156      -15.28688845292544        9.66125338387383
 C         -12.37336562814178      -14.21050695059020        9.34277366654204
 C         -14.28048684575036      -15.55377365243796        8.47189462792947
 O         -12.76349363304432      -13.10824462470652        9.01932318311887
 H         -15.14082222292272      -14.89318713218805       10.78116070053590
 H         -12.82716673657886      -16.20616217208401        9.92619607139053
 H         -13.70654542856476      -15.87513737296443        7.60183213195077
 H         -15.02072628536475      -16.32175189754907        8.69917743292469
 H         -14.81159950492038      -14.64232947851244        8.19880311117821
 N         -11.04592580114624      -14.54229623914730        9.45802260455765
 C         -10.01179864643033      -13.58527794420908        9.12257201737582
 C         -10.13308813294372      -13.23096984594412        7.65607533089920
 C          -8.62078077493908      -14.10033574643455        9.44313544830519
 O          -9.99271478357587      -14.10823607950758        6.82968624438658
 H         -10.74299048169643      -15.48590344016310        9.70499450046056
 H         -10.22476574978480      -12.68328086402144        9.71712774779427
 H          -8.40517598235707      -14.98645213035365        8.84636982855919
 H          -7.85955972481755      -13.35433185563487        9.21123949979503
 H          -8.52990550142034      -14.37071616986340       10.49517547159838
 N         -10.39377788096249      -11.91772312852714        7.33221245690817
 C         -10.28805352035423      -11.46625181158801        5.95474047885936
 C          -8.87582640048143      -11.75001573774851        5.47227410586779
 C         -10.71305719290194       -9.99553445521685        5.75910038607341
 O          -7.93721231665863      -11.21864297149657        6.03105933809577
 C         -12.17904977687052       -9.81046788879211        6.14869030246128
 C          -9.81067836475574       -9.02406245888329        6.51847054282884
 H         -10.32495477394436      -11.18755296951389        8.04036676134814
 H         -10.97473899786253      -12.10350371258346        5.37988691845862
 H         -10.60929021676261       -9.77501883115676        4.68209136570952
 H         -12.33114154504849      -10.05438719798728        7.19992430744176
 H         -12.50760275853098       -8.78202267247304        5.99590562785853
 H         -12.83214004281191      -10.46223315533777        5.56762486011806
 H          -9.91187216842611       -9.15231766627019        7.59485663328860
 H          -8.76107970997641       -9.18183444929945        6.26786040928329
 H         -10.05925829371883       -7.98688431616551        6.29085184340203
 N          -8.67582281835927      -12.67621903129018        4.45336560332962
 C          -7.45114802403396      -13.46426144587365        4.46076282678574
 C          -6.72266856463492      -13.48383628799923        3.17374974547895
 O          -7.09493866913176      -14.18331223703402        2.25509046726263
 H          -9.47702943652762      -13.18385288982843        4.07386179289308
 H          -6.80657042008034      -13.05409256891361        5.24591525912177
 H          -7.68767027129726      -14.49109536375745        4.76441832409994
 N          -5.60254303057299      -12.69502577283165        3.11028269263546
 C          -4.79961359134772      -12.70057874931307        1.93197931378611
 C          -4.79204536245686      -11.35447299757854        1.25979176670114
 O          -5.84443109055298      -10.77819571356510        1.12757298707500
 H          -5.43622403569724      -11.93453993189371        3.77341777383841
 H          -3.79775082877779      -13.04566781796479        2.19887851010401
 H          -5.22736737017866      -13.43676272978340        1.24154945069644
 N          -3.58890462612726      -10.79594560985169        0.78724863495046
 C          -2.31710198921671      -11.30729650689806        0.79792907420257
 H          -3.69491979075920       -9.92252310216354        0.24413978343499
 H          -1.62975722531772      -10.74633769221391        1.41734861508790
 H          -2.31528640106165      -12.33328212906365        1.19416437058864
57
 energy: -9.797704995979 gnorm: 0.012297322800 xtb: 6.6.1 (8d0f1dd)
 C         -13.49473203426325      -14.76995937949779       12.04048040614627
 O         -12.31741095994662      -14.93460580961477       12.24486080500377
 N         -14.11855832726736      -14.89147798612269       10.85429327766335
 C         -13.37463275631047      -15.28698144346735        9.66082097496772
 C         -12.37326898131216      -14.21070926919324        9.34275651973052
 C         -14.28037082100610      -15.55407683079791        8.47187196653701
 O         -12.76358389286463      -13.10849036317589        9.01923399134712
 H         -15.14133451854328      -14.89226108331301       10.78047831099971
 H         -12.82709600980300      -16.20610491793386        9.92630748908214
 H         -13.70633295699318      -15.87555844103757        7.60188738147362
 H         -15.02052481153260      -16.32213850810599        8.69925218625191
 H         -14.81153943008618      -14.64266256319008        8.19877442117960
 N         -11.04587630394816      -14.54237175712254        9.45804503040651
 C         -10.01189714115277      -13.58511032262314        9.12249807651126
 C         -10.13309453502274      -13.23103196030707        7.65602712487210
 C          -8.62080972151384      -14.10025634470983        9.44304502377626
 O          -9.99274171987694      -14.10825433166758        6.82957271431911
 H         -10.74296649859711      -15.48601287300208        9.70487441459125
 H         -10.22488921557729      -12.68321106274103        9.71701836868423
 H          -8.40515859086871      -14.98636359139146        8.84628288948880
 H          -7.85965476619940      -13.35414247433691        9.21111750207907
 H          -8.52990252307224      -14.37066729932002       10.49506343518498
 N         -10.39384142267635      -11.91768045306092        7.33235887627195
 C         -10.28830150680552      -11.46634543888897        5.95461233361231
 C          -8.87596413046290      -11.74995397819178        5.47237649903611
 C         -10.71313853426055       -9.99519351622348        5.75930445685359
 O          -7.93726265456200      -11.21848380418342        6.03093880565660
 C         -12.17903475447886       -9.81016873599935        6.14884069642174
 C          -9.81050707905118       -9.02393753429030        6.51853557105802
 H         -10.32494321360643      -11.18768532584043        8.04068698350684
 H         -10.97528702789534      -12.10322437082351        5.37987217357913
 H         -10.60932825768362       -9.77479337997765        4.68227717601967
 H         -12.33110035733238      -10.05410079921840        7.20007607560960
 H         -12.50751153779441       -8.78169477695498        5.99609591678222
 H         -12.83212350501109      -10.46191005710909        5.56774011344209
 H          -9.91170340451531       -9.15226696072709        7.59491389458812
 H          -8.76094800682143       -9.18190596200598        6.26791415865088
 H         -10.05896986237335       -7.98670405472133        6.29104071066729
 N          -8.67594389218994      -12.67614514839872        4.45320349777192
 C          -7.45093592486776      -13.46407123767348        4.46072601205949
 C          -6.72264765009480      -13.48354965308100        3.17361967922084
 O          -7.09436786984160      -14.18380594074059        2.25537950517920
 H          -9.47698571159895      -13.18414815718698        4.07381392538786
 H          -6.80663409673764      -13.05373285234026        5.24584624009034
 H          -7.68770851316925      -14.49099849706558        4.76427070475568
 N          -5.60244944331004      -12.69460817200368        3.11038478871007
 C          -4.80057075209379      -12.69914376396161        1.93107861727822
 C          -4.79542678965995      -11.35220274441813        1.25760568721754
 O          -5.84616470489377      -10.77596822249276        1.12805160182177
 H          -5.43646107104266      -11.93404192294044        3.77329576444085
 H          -3.79830198798472      -13.04442006613070        2.19865213473883
 H          -5.22713066775406      -13.43669602252465        1.24166347959479
 N          -3.58816976616389      -10.80135117885555        0.78469664625827
 C          -2.31448911357864      -11.30679538730895        0.79948117426909
 H          -3.69733077068370       -9.92409908905443        0.24166873620410
 H          -1.62758540731825      -10.74857684040940        1.41968797932471
 H          -2.31335409592776      -12.33314734252457        1.19772707362394
57
 energy: -9.797810773486 gnorm: 0.003477152413 xtb: 6.6.1 (8d0f1dd)
 C         -13.49371843085870      -14.77732248368156       12.03976636830054
 O         -12.31641752789941      -14.93114740846595       12.24619413811867
 N         -14.11928113477730      -14.88965947337730       10.85404457434341
 C         -13.37471642125661      -15.28733679204721        9.66047923627050
 C         -12.37321691826986      -14.21099686291471        9.34270601513117
 C         -14.28008036961305      -15.55482163983991        8.47187145676299
 O         -12.76375355912871      -13.10886312335172        9.01906807295665
 H         -15.14215408527532      -14.89048110476097       10.77958547840127
 H         -12.82685780844450      -16.20612320415570        9.92653656797422
 H         -13.70592481401271      -15.87633243999409        7.60196376342967
 H         -15.02010431164935      -16.32297105344990        8.69936666205358
 H         -14.81141220843272      -14.64349090198053        8.19861686234370
 N         -11.04581547867444      -14.54243047456318        9.45804156924218
 C         -10.01204979149371      -13.58499603053950        9.12243660949954
 C         -10.13314652381640      -13.23107672726386        7.65595270806356
 C          -8.62086978165055      -14.09995396525162        9.44300767884154
 O          -9.99277296167182      -14.10825258930968        6.82946362521930
 H         -10.74287926524427      -15.48603684545739        9.70484533021608
 H         -10.22514517626692      -12.68306133821461        9.71685095476763
 H          -8.40510113978572      -14.98607391795513        8.84629253919125
 H          -7.85982744791128      -13.35366114854714        9.21103821262563
 H          -8.52993995055934      -14.37030569197741       10.49503085647022
 N         -10.39391140574729      -11.91757327566228        7.33252538224879
 C         -10.28856087144673      -11.46619334822404        5.95462822888823
 C          -8.87612105552016      -11.74982484101094        5.47253058810883
 C         -10.71323714768285       -9.99483289346944        5.75948769295721
 O          -7.93725382637957      -11.21844482649513        6.03083543147205
 C         -12.17903922310622       -9.80984290133098        6.14900622830358
 C          -9.81044549922602       -9.02380923851694        6.51865201389159
 H         -10.32499499871376      -11.18787299720704        8.04108492302388
 H         -10.97585444754901      -12.10287892123132        5.37977729073581
 H         -10.60934802882290       -9.77455674239418        4.68244504955019
 H         -12.33106594360395      -10.05375736219039        7.20024228501534
 H         -12.50746895362789       -8.78136418591745        5.99626292869706
 H         -12.83213936897387      -10.46158355280966        5.56790291513770
 H          -9.91166719956294       -9.15223117838397        7.59499569620272
 H          -8.76088827336659       -9.18195344899361        6.26803672298282
 H         -10.05879201059953       -7.98653106003398        6.29127794685093
 N          -8.67613331153093      -12.67596646361772        4.45307177128251
 C          -7.45089000132368      -13.46371225610147        4.46041990630072
 C          -6.72279494258840      -13.48309327665850        3.17344232811772
 O          -7.09414501904627      -14.18386869993512        2.25548973278013
 H          -9.47698752014647      -13.18426434415905        4.07376275166068
 H          -6.80678942423836      -13.05324761802422        5.24579078567414
 H          -7.68781228319766      -14.49075540313984        4.76414860597911
 N          -5.60220411505653      -12.69436853424457        3.11062822668153
 C          -4.80098306723777      -12.69775095263610        1.93091773710217
 C          -4.79771895049367      -11.34915632351662        1.25616772904663
 O          -5.84677013342147      -10.77237584462337        1.13026987043685
 H          -5.43652292296968      -11.93365853586245        3.77329568307795
 H          -3.79883714326327      -13.04386239191208        2.19833854615627
 H          -5.22715461015263      -13.43613032390551        1.24170014873702
 N          -3.58879589166122      -10.80647634047748        0.78169206150319
 C          -2.31163686353945      -11.30840376955937        0.79999209939408
 H          -3.69864950640665       -9.92657643129084        0.23895440047451
 H          -1.62678546125607      -10.74960017554415        1.42104451597383
 H          -2.31141547184781      -12.33408632382110        1.20102249533091
57
 energy: -9.797818719395 gnorm: 0.001864468754 xtb: 6.6.1 (8d0f1dd)
 C         -13.49350664371138      -14.77884551548970       12.03960861724495
 O         -12.31636226712322      -14.93020235238930       12.24643439238389
 N         -14.11950219000486      -14.88949690821971       10.85382237121433
 C         -13.37466145339090      -15.28748182990629        9.66049408951324
 C         -12.37321489813237      -14.21103195969078        9.34269846889734
 C         -14.27999953608981      -15.55499379586047        8.47188965518985
 O         -12.76376962573232      -13.10891244347635        9.01904229732682
 H         -15.14230459850041      -14.88977139837635       10.77953281212637
 H         -12.82677092015930      -16.20617026593984        9.92656435471716
 H         -13.70585698204008      -15.87643509320516        7.60196373619868
 H         -15.02001924897196      -16.32312179289765        8.69938704793129
 H         -14.81137443302710      -14.64367353461263        8.19857528863252
 N         -11.04579958845087      -14.54241003247295        9.45803651718081
 C         -10.01206365885929      -13.58499378685489        9.12242934925723
 C         -10.13315833895227      -13.23107296163014        7.65593036965918
 C          -8.62087136623586      -14.09987352935743        9.44301347249392
 O          -9.99276265591093      -14.10825018966602        6.82946287468032
 H         -10.74284933863441      -15.48599517567470        9.70487581006067
 H         -10.22518515488467      -12.68302050124189        9.71681973283971
 H          -8.40508178522406      -14.98600263701246        8.84631431116138
 H          -7.85984233288161      -13.35356571280599        9.21103872059690
 H          -8.52994208736278      -14.37019440965233       10.49504611633317
 N         -10.39389168902999      -11.91754104224004        7.33254685716436
 C         -10.28855706626170      -11.46612034065991        5.95466376463459
 C          -8.87611522737592      -11.74977482393287        5.47256937211086
 C         -10.71327002645892       -9.99482299893420        5.75948937290654
 O          -7.93717538636113      -11.21853354265879        6.03085235402817
 C         -12.17907361811840       -9.80984426435199        6.14901457752157
 C          -9.81053695461179       -9.02380411489227        6.51869052610976
 H         -10.32502910521432      -11.18792556055161        8.04118066282926
 H         -10.97585518956891      -12.10284074513466        5.37973342039216
 H         -10.60935778252144       -9.77454663534078        4.68244786884498
 H         -12.33109318255648      -10.05372242455341        7.20025783260643
 H         -12.50752280640728       -8.78137801078208        5.99623546389142
 H         -12.83217553921963      -10.46160938049766        5.56793778887213
 H          -9.91178647980300       -9.15225405259316        7.59502239080145
 H          -8.76096050159418       -9.18192814237951        6.26810406044572
 H         -10.05890309067820       -7.98652894238040        6.29133163413147
 N          -8.67615012928457      -12.67589657025391        4.45308477875715
 C          -7.45095948176212      -13.46364680081723        4.46032497329961
 C          -6.72290285088379      -13.48300508022522        3.17337012406370
 O          -7.09431314317734      -14.18368769749947        2.25538291240003
 H          -9.47699557556748      -13.18418551874906        4.07376237624881
 H          -6.80680867632222      -13.05322502770242        5.24577773098833
 H          -7.68782698858284      -14.49069991162011        4.76414723359470
 N          -5.60214337346527      -12.69451124512544        3.11064125127522
 C          -4.80084806630065      -12.69772058659299        1.93112359341451
 C          -4.79760341810024      -11.34868022050213        1.25619607621750
 O          -5.84639968722864      -10.77151321155740        1.13114148984680
 H          -5.43647659195406      -11.93373407909090        3.77327936488142
 H          -3.79887510062135      -13.04413384613601        2.19822623339791
 H          -5.22727655056164      -13.43595376806123        1.24163776881365
 N          -3.58912558532345      -10.80726681077709        0.78111151200078
 C          -2.31145878423212      -11.30896586367980        0.79991672503620
 H          -3.69810737580808       -9.92710331082988        0.23893843358503
 H          -1.62717063386809      -10.74895278270163        1.42090101610663
 H          -2.31135523689428      -12.33442681976162        1.20097805314144
57
 energy: -9.797821771127 gnorm: 0.001212621516 xtb: 6.6.1 (8d0f1dd)
 C         -13.49333538221972      -14.78051117852683       12.03932897202027
 O         -12.31642088422635      -14.92878896365914       12.24672750876358
 N         -14.11970522472733      -14.88967549699833       10.85353821503706
 C         -13.37455365868672      -15.28763496737938        9.66056655749330
 C         -12.37321491761632      -14.21100804387591        9.34269610943204
 C         -14.27995889819804      -15.55502598451962        8.47190971571859
 O         -12.76372106313379      -13.10887783665629        9.01906208355165
 H         -15.14238845554009      -14.88861131719707       10.77969148526081
 H         -12.82670550430027      -16.20623355141140        9.92652635734122
 H         -13.70587747207645      -15.87634069853271        7.60193274295062
 H         -15.02001997323891      -16.32306855108022        8.69939898029494
 H         -14.81135060198278      -14.64368595844839        8.19854414489011
 N         -11.04578352170062      -14.54237071757389        9.45802188456035
 C         -10.01203341748862      -13.58502577770681        9.12242312248425
 C         -10.13314917073240      -13.23105177328227        7.65590567578699
 C          -8.62084817248205      -14.09987101878131        9.44300447361367
 O          -9.99273783732197      -14.10823980109784        6.82947393790323
 H         -10.74282472630136      -15.48594092905305        9.70491037696811
 H         -10.22515769647367      -12.68300708980550        9.71680743625147
 H          -8.40507107446167      -14.98600858649628        8.84630453726964
 H          -7.85980339925420      -13.35358946436628        9.21103398010921
 H          -8.52991997179019      -14.37017531168658       10.49504501080125
 N         -10.39380109632373      -11.91750512025690        7.33256028547073
 C         -10.28847927997584      -11.46605031545554        5.95471127977791
 C          -8.87605398497360      -11.74971590255090        5.47260437615224
 C         -10.71331426573617       -9.99489378002153        5.75946549882262
 O          -7.93698784753348      -11.21874087866158        6.03090926636140
 C         -12.17914927898960       -9.80995496352409        6.14899795436269
 C          -9.81072654338207       -9.02383059811083        6.51876108268379
 H         -10.32508968991760      -11.18799605909792        8.04130617367402
 H         -10.97570586423703      -12.10286434493586        5.37970225674185
 H         -10.60938323318324       -9.77457371635783        4.68243258218608
 H         -12.33116337959035      -10.05375653923544        7.20025906325821
 H         -12.50766439726613       -8.78152003908054        5.99613815700408
 H         -12.83223688462874      -10.46178478366177        5.56797774274044
 H          -9.91203110617395       -9.15232621333137        7.59508037258629