      -----------------------------------------------------------      
     |                   =====================                   |     
     |                           x T B                           |     
     |                   =====================                   |     
     |                         S. Grimme                         |     
     |          Mulliken Center for Theoretical Chemistry        |     
     |                    University of Bonn                     |     
      -----------------------------------------------------------      

   * xtb version 6.6.1 (8d0f1dd) compiled by 'conda@1efc2f54142f' on 2023-08-01

   xtb is free software: you can redistribute it and/or modify it under
   the terms of the GNU Lesser General Public License as published by
   the Free Software Foundation, either version 3 of the License, or
   (at your option) any later version.
   
   xtb is distributed in the hope that it will be useful,
   but WITHOUT ANY WARRANTY; without even the implied warranty of
   MERCHANTABILITY or FITNESS FOR A PARTICULAR PURPOSE.  See the
   GNU Lesser General Public License for more details.
   
   Cite this work as:
   * C. Bannwarth, E. Caldeweyher, S. Ehlert, A. Hansen, P. Pracht,
     J. Seibert, S. Spicher, S. Grimme, WIREs Comput. Mol. Sci., 2020, 11,
     e01493. DOI: 10.1002/wcms.1493
   
   for GFN2-xTB:
   * C. Bannwarth, S. Ehlert and S. Grimme., J. Chem. Theory Comput., 2019,
     15, 1652-1671. DOI: 10.1021/acs.jctc.8b01176
   for GFN1-xTB:
   * S. Grimme, C. Bannwarth, P. Shushkov, J. Chem. Theory Comput., 2017,
     13, 1989-2009. DOI: 10.1021/acs.jctc.7b00118
   for GFN0-xTB:
   * P. Pracht, E. Caldeweyher, S. Ehlert, S. Grimme, ChemRxiv, 2019, preprint.
     DOI: 10.26434/chemrxiv.8326202.v1
   for GFN-FF:
   * S. Spicher and S. Grimme, Angew. Chem. Int. Ed., 2020, 59, 15665-15673.
     DOI: 10.1002/anie.202004239
   
   for ALPB and GBSA implicit solvation:
   * S. Ehlert, M. Stahn, S. Spicher, S. Grimme, J. Chem. Theory Comput.,
     2021, 17, 4250-4261. DOI: 10.1021/acs.jctc.1c00471
   
   for DFT-D4:
   * E. Caldeweyher, C. Bannwarth and S. Grimme, J. Chem. Phys., 2017,
     147, 034112. DOI: 10.1063/1.4993215
   * E. Caldeweyher, S. Ehlert, A. Hansen, H. Neugebauer, S. Spicher,
     C. Bannwarth and S. Grimme, J. Chem. Phys., 2019, 150, 154122.
     DOI: 10.1063/1.5090222
   * E. Caldeweyher, J.-M. Mewes, S. Ehlert and S. Grimme, Phys. Chem. Chem. Phys.
     2020, 22, 8499-8512. DOI: 10.1039/D0CP00502A
   
   for sTDA-xTB:
   * S. Grimme and C. Bannwarth, J. Chem. Phys., 2016, 145, 054103.
     DOI: 10.1063/1.4959605
   
   in the mass-spec context:
   * V. Asgeirsson, C. Bauer and S. Grimme, Chem. Sci., 2017, 8, 4879.
     DOI: 10.1039/c7sc00601b
   * J. Koopman and S. Grimme, ACS Omega 2019, 4, 12, 15120-15133.
     DOI: 10.1021/acsomega.9b02011
   
   for metadynamics refer to:
   * S. Grimme, J. Chem. Theory Comput., 2019, 155, 2847-2862
     DOI: 10.1021/acs.jctc.9b00143
   
   for SPH calculations refer to:
   * S. Spicher and S. Grimme, J. Chem. Theory Comput., 2021, 17, 1701-1714
     DOI: 10.1021/acs.jctc.0c01306
   
   with help from (in alphabetical order)
   P. Atkinson, C. Bannwarth, F. Bohle, G. Brandenburg, E. Caldeweyher
   M. Checinski, S. Dohm, S. Ehlert, S. Ehrlich, I. Gerasimov, C. Hölzer
   A. Katbashev, J. Koopman, C. Lavigne, S. Lehtola, F. März, M. Müller,
   F. Musil, H. Neugebauer, J. Pisarek, C. Plett, P. Pracht, F. Pultar,
   J. Seibert, P. Shushkov, S. Spicher, M. Stahn, M. Steiner, T. Strunk,
   J. Stückrath, T. Rose, and J. Unsleber
   
 * started run on 2025/05/27 at 09:37:58.752     

           -------------------------------------------------
          |                Calculation Setup                |
           -------------------------------------------------

          program call               : xtb substructure_79.pdb --gfnff --input xtb_settings.inp --opt vtight --alpb water --verbose
          coordinate file            : substructure_79.pdb
          xtbhome directory          : /home/dargen3
          path for xtb               : /home/dargen3
          xcontrol input file        : xtb_settings.inp
          omp threads                :                     1

$$$$$$$$$$$$$$$$$$$$$$$$$$$$$$$$$$$$$$$$$$$$$$$$$$$$$$$$$$$$$$$$$$$$$$$$
 CONSTRAINTS & SCANS: DEBUG SECTION
$$$$$$$$$$$$$$$$$$$$$$$$$$$$$$$$$$$$$$$$$$$$$$$$$$$$$$$$$$$$$$$$$$$$$$$$
   ID    Z sym.   atoms
    1    6  C     1, 4, 5, 11, 12, 18, 19, 25, 26, 32
    2    8  O     2, 6, 13, 20, 27
    3    7  N     3, 10, 17, 24, 31
    4    1  H     7-9, 14-16, 21-23, 28-30, 33-35
> constrain
-> atoms: 1, 2, 3, 4, 5, 6, 7, 8, 9, 10, 11, 12, 13, 14, 15, 16, 18, 24, 25, 26, 27, 28, 29, 30, 31, 32, 33, 34, 35
--> 1: 1
--> 2: 2
--> 3: 3
--> 4: 4
--> 5: 5
--> 6: 6
--> 7: 7
--> 8: 8
--> 9: 9
--> 10: 10
--> 11: 11
--> 12: 12
--> 13: 13
--> 14: 14
--> 15: 15
--> 16: 16
--> 17: 18
--> 18: 24
--> 19: 25
--> 20: 26
--> 21: 27
--> 22: 28
--> 23: 29
--> 24: 30
--> 25: 31
--> 26: 32
--> 27: 33
--> 28: 34
--> 29: 35
-> force constant=1.0
$$$$$$$$$$$$$$$$$$$$$$$$$$$$$$$$$$$$$$$$$$$$$$$$$$$$$$$$$$$$$$$$$$$$$$$$
           -------------------------------------------------
          |                   Constraints                   |
           -------------------------------------------------

 * 29 constrained atom positions
   positions refering to input geometry

     #   Z                                   position/Å      displ./Å
     1   6 C     -8.8760008   -11.7500011     5.4730005     0.0000000
     2   8 O     -7.9370007   -11.2190010     6.0310006     0.0000000
     3   7 N     -8.6760008   -12.6760012     4.4530004     0.0000000
     4   6 C     -7.4510007   -13.4620012     4.4550004     0.0000000
     5   6 C     -6.7220006   -13.4830013     3.1740003     0.0000000
     6   8 O     -7.0960007   -14.1800013     2.2540002     0.0000000
     7   1 H     -9.4770009   -13.1830012     4.0740004     0.0000000
     8   1 H     -6.8070006   -13.0520012     5.2460005     0.0000000
     9   1 H     -7.6880007   -14.4900013     4.7640004     0.0000000
    10   7 N     -5.6020005   -12.6930012     3.1110003     0.0000000
    11   6 C     -4.7940004   -12.6990012     1.9410002     0.0000000
    12   6 C     -4.7850004   -11.3490011     1.2660001     0.0000000
    13   8 O     -5.8460005   -10.7750010     1.1300001     0.0000000
    14   1 H     -5.4360005   -11.9320011     3.7740004     0.0000000
    15   1 H     -3.7980004   -13.0430012     2.1990002     0.0000000
    16   1 H     -5.2280005   -13.4320012     1.2410001     0.0000000
    18   6 C     -2.2890002   -11.3470011     0.7820001     0.0000000
    24   7 N     -0.7850001   -10.5330010    -1.0010001     0.0000000
    25   6 C     -0.3730000   -10.4770010    -2.3880002     0.0000000
    26   6 C     -0.8030001    -9.1650009    -3.0040003     0.0000000
    27   8 O     -1.8900002    -8.7220008    -2.6980003     0.0000000
    28   1 H     -0.6230001    -9.6790009    -0.4660000     0.0000000
    29   1 H      0.7100001   -10.6030010    -2.4300002     0.0000000
    30   1 H     -0.8460001   -11.3010010    -2.9130003     0.0000000
    31   7 N     -0.0040000    -8.4910008    -3.9110004     0.0000000
    32   6 C      1.3240001    -8.8870008    -4.3620004     0.0000000
    33   1 H     -0.3780000    -7.6740007    -4.3860004     0.0000000
    34   1 H      2.0770002    -8.4520008    -3.7290003     0.0000000
    35   1 H      1.4090001    -9.9880009    -4.2970004     0.0000000

     applying 406 atom pairwise harmonic potentials
       applied force constant per pair:     0.0357143
     effective force constant per atom:     1.0000000
         constraining energy/grad norm:     0.0000000     0.0000000

     total constraint energy/grad norm:     0.0000000     0.0000000

          charge from pdb residues: 0

          entering GFN-FF setup routine... 35

          ==================== Thresholds ====================
          CN  :   150.00000
          rep :   500.00000
          disp:  2500.00000
          HB1 :   250.00000
          HB2 :   450.00000

          Pauling EN used:
          Z : 1  EN :  2.20
          Z : 6  EN :  2.55
          Z : 7  EN :  3.04
          Z : 8  EN :  3.44
          electric field strengths (au): 0.000

           ------------------------------------------------- 
          |           Force Field Initialization            |
           ------------------------------------------------- 

          distances ...
          ----------------------------------------
          generating topology and atomic info file ...
          pair mat ...
          computing topology distances matrix with Floyd-Warshall algo ...
          making topology EEQ charges ...
          #fragments for EEQ constrain from pdb file: 6
          ----------------------------------------
          generating topology and atomic info file ...
          pair mat ...
          computing topology distances matrix with Floyd-Warshall algo ...
          making topology EEQ charges ...
          #fragments for EEQ constrain from pdb file: 6
          rings ...
          # BATM   270
          # H in HB   15
          doing iterative Hueckel for 5 subsystem(s) ...
          iterative Hueckel run to get P ...
Hueckel system :  1 charge :   0 ndim/Nel :    3    3   eps(HOMO/LUMO)   -0.953512   -0.953512
Hueckel system :  2 charge :   0 ndim/Nel :    3    4   eps(HOMO/LUMO)   -0.911362   -0.911362
Hueckel system :  3 charge :   0 ndim/Nel :    3    4   eps(HOMO/LUMO)   -0.911922   -0.911922
Hueckel system :  4 charge :   0 ndim/Nel :    3    4   eps(HOMO/LUMO)   -0.910012   -0.910012
Hueckel system :  5 charge :   0 ndim/Nel :    4    5   eps(HOMO/LUMO)    1.305315    1.305315
WARNING: probably wrong pi occupation for system 5. Second attempt with Nel=Nel-1!
 at,nb,topo%hyb,Npiel:          26  C             3           2           1
 at,nb,topo%hyb,Npiel:          27  O             1           2           1
 at,nb,topo%hyb,Npiel:          31  N             3           3           2
 at,nb,topo%hyb,Npiel:          32  C             3           2           1

          eigenvalues
 #    :           1          2          3          4
 occ. :        2.000      1.987      0.013      0.000
 eps  :        -4.349     -2.183      1.305      3.389
Hueckel system :  5 charge :   0 ndim/Nel :    4    4   eps(HOMO/LUMO)   -2.182828    1.305315

  atom   neighbors  erfCN metchar sp-hybrid imet pi  qest     coordinates
    1   C      2    1.93   0.00        -2    0    1   0.120  -16.773209  -22.204282   10.342471
    2   O      1    0.98   0.00         2    0    1  -0.120  -14.998756  -21.200837   11.396938
    3   N      3    2.79   0.00        -3    0    1  -0.166  -16.395264  -23.954168    8.414950
    4   C      4    3.50   0.00         3    0    0   0.005  -14.080349  -25.439493    8.418730
    5   C      3    2.80   0.00         2    0    1   0.174  -12.702739  -25.479177    5.997991
    6   O      1    0.98   0.00         2    0    1  -0.352  -13.409497  -26.796316    4.259443
    7   H      1    0.98   0.00         0    0    0   0.153  -17.908934  -24.912260    7.698744
    8   H      1    0.97   0.01         0    0    0   0.093  -12.863366  -24.664705    9.913503
    9   H      1    0.97   0.01         0    0    0   0.093  -14.528214  -27.382132    9.002655
   10   N      3    2.80   0.00        -3    0    1  -0.168  -10.586246  -23.986294    5.878938
   11   C      4    3.50   0.00         3    0    0   0.006   -9.059347  -23.997632    3.667958
   12   C      3    2.79   0.00         2    0    1   0.175   -9.042340  -21.446502    2.392393
   13   O      1    0.98   0.00         2    0    1  -0.352  -11.047339  -20.361799    2.135391
   14   H      1    0.98   0.00         0    0    0   0.154  -10.272551  -22.548212    7.131826
   15   H      1    0.97   0.00         0    0    0   0.092   -7.177180  -24.647698    4.155508
   16   H      1    0.97   0.01         0    0    0   0.092   -9.879488  -25.382801    2.345150
   17   N      3    2.79   0.00        -3    0    1  -0.167   -6.852147  -20.346681    1.483435
   18   C      4    3.49   0.00         3    0    0   0.005   -4.325583  -21.442722    1.477766
   19   C      3    2.80   0.00         2    0    1   0.178   -3.273006  -21.639254   -1.141395
   20   O      1    0.98   0.00         2    0    1  -0.353   -4.027006  -23.294654   -2.534123
   21   H      1    0.98   0.00         0    0    0   0.151   -7.001435  -18.738524    0.440306
   22   H      1    0.97   0.00         0    0    0   0.093   -3.087812  -20.308887    2.683411
   23   H      1    0.97   0.00         0    0    0   0.093   -4.355819  -23.345677    2.292238
   24   N      3    2.79   0.00        -3    0    1  -0.170   -1.483435  -19.904485   -1.891616
   25   C      4    3.49   0.00         3    0    0   0.006   -0.704868  -19.798661   -4.512666
   26   C      3    2.79   0.00         2    0    1   0.195   -1.517450  -17.319340   -5.676737
   27   O      1    0.98   0.00         2    0    1  -0.357   -3.571582  -16.482191   -5.098481
   28   H      1    0.98   0.00         0    0    0   0.147   -1.177299  -18.290659   -0.880612
   29   H      1    0.97   0.00         0    0    0   0.090    1.341706  -20.036766   -4.592034
   30   H      1    0.97   0.00         0    0    0   0.090   -1.598708  -21.355795   -5.504772
   31   N      3    2.79   0.00         3    0    1  -0.226   -0.007559  -16.045665   -7.390719
   32   C      3    2.78   0.00         2    0    1  -0.008    2.501997  -16.793996   -8.242985
   33   H      1    0.98   0.00         0    0    0   0.123   -0.714316  -14.501758   -8.288339
   34   H      1    0.97   0.00         0    0    0   0.055    3.924961  -15.971965   -7.046789
   35   H      1    0.97   0.01         0    0    0   0.055    2.662624  -18.874585   -8.120153

molecular fragment  # atoms  topo charge
       1             2            -0.000
       2             7            -0.000
       3             7            -0.000
       4             7             0.000
       5             7             0.000
       6             5            -0.000


          #atoms :   35
          #bonds :   34

 bond atoms        type  in ring    R      R0    piBO    fqq  kbond(tot)  alp
 O  C     2    1      2    0     1.214   0.996   0.799   1.047  -0.252   0.584
 N  C     3    1      2    0     1.392   1.214   0.504   1.047  -0.235   0.524
 C  N     4    3      1    0     1.455   1.326 -99.000   1.033  -0.151   0.496
 C  C     5    4      1    0     1.474   1.333 -99.000   1.013  -0.162   0.475
 O  C     6    5      2    0     1.213   1.031   0.856   1.047  -0.262   0.584
 H  N     7    3      1    0     1.021   0.890 -99.000   1.047  -0.176   0.551
 H  C     8    4      1    0     1.099   0.977 -99.000   1.018  -0.164   0.482
 H  C     9    4      1    0     1.099   0.977 -99.000   1.018  -0.164   0.482
 N  C    10    5      2    0     1.372   1.263   0.503   1.047  -0.234   0.524
 C  N    11   10      1    0     1.422   1.326 -99.000   1.036  -0.151   0.496
 C  C    12   11      1    0     1.509   1.332 -99.000   1.011  -0.162   0.475
 O  C    13   12      2    0     1.214   1.031   0.856   1.047  -0.262   0.584
 H  N    14   10      1    0     1.023   0.890 -99.000   1.047  -0.176   0.551
 H  C    15   11      1    0     1.085   0.977 -99.000   1.016  -0.164   0.482
 H  C    16   11      1    0     1.103   0.977 -99.000   1.016  -0.164   0.482
 N  C    17   12      2    0     1.383   1.263   0.503   1.047  -0.234   0.524
 C  N    18   17      1    0     1.457   1.326 -99.000   1.033  -0.151   0.496
 C  C    19   18      1    0     1.497   1.332 -99.000   1.014  -0.162   0.475
 O  C    20   19      2    0     1.212   1.031   0.856   1.047  -0.262   0.584
 H  N    21   17      1    0     1.017   0.890 -99.000   1.047  -0.176   0.551
 H  C    22   18      1    0     1.094   0.976 -99.000   1.018  -0.164   0.482
 H  C    23   18      1    0     1.095   0.976 -99.000   1.018  -0.164   0.482
 N  C    24   19      2    0     1.377   1.263   0.504   1.047  -0.234   0.524
 C  N    25   24      1    0     1.448   1.326 -99.000   1.034  -0.151   0.496
 C  C    26   25      1    0     1.512   1.332 -99.000   1.011  -0.162   0.475
 O  C    27   26      2    0     1.213   1.018   0.930   1.047  -0.274   0.584
 H  N    28   24      1    0     1.021   0.890 -99.000   1.047  -0.176   0.551
 H  C    29   25      1    0     1.091   0.977 -99.000   1.018  -0.164   0.482
 H  C    30   25      1    0     1.085   0.977 -99.000   1.018  -0.164   0.482
 N  C    31   26      2    0     1.384   1.291   0.346   1.047  -0.203   0.524
 C  N    32   31      2    0     1.457   1.189   0.906   1.006  -0.302   0.524
 H  N    33   31      1    0     1.016   0.890 -99.000   1.047  -0.176   0.551
 H  C    34   32      1    0     1.076   0.950 -99.000   1.029  -0.179   0.490
 H  C    35   32      1    0     1.106   0.949 -99.000   1.029  -0.179   0.490
          #angl  :   55

 angle atoms        phi0    phi      FC  pi rings
    1    3    2   145.000 121.091   0.082 F   0
    3    4    1   115.000 118.629   0.411 F   0
    3    7    1   115.000 119.316   0.335 F   0
    3    7    4   104.000 113.121   0.182 F   0
    4    5    3   109.500 115.008   0.307 F   0
    4    8    3   109.500 107.015   0.253 F   0
    4    8    5   109.500 109.931   0.251 F   0
    4    9    3   109.500 108.901   0.253 F   0
    4    9    5   109.500 109.729   0.251 F   0
    4    9    8   108.600 105.832   0.209 F   0
    5    6    4   120.000 120.977   0.178 F   0
    5   10    4   120.000 115.811   0.243 F   0
    5   10    6   120.000 123.201   0.176 F   0
   10   11    5   115.000 119.949   0.409 F   0
   10   14    5   115.000 122.080   0.333 F   0
   10   14   11   104.000 116.377   0.182 F   0
   11   12   10   109.500 111.567   0.307 F   0
   11   15   10   109.500 109.109   0.253 F   0
   11   15   12   109.500 112.612   0.252 F   0
   11   16   10   109.500 107.550   0.253 F   0
   11   16   12   109.500 108.243   0.252 F   0
   11   16   15   108.600 107.552   0.209 F   0
   12   13   11   120.000 117.891   0.178 F   0
   12   17   11   120.000 122.468   0.243 F   0
   12   17   13   120.000 119.631   0.176 F   0
   17   18   12   115.000 127.009   0.409 F   0
   17   21   12   115.000 118.394   0.333 F   0
   17   21   18   104.000 113.765   0.182 F   0
   18   19   17   109.500 111.766   0.307 F   0
   18   22   17   109.500 109.263   0.253 F   0
   18   22   19   109.500 110.812   0.251 F   0
   18   23   17   109.500 110.587   0.253 F   0
   18   23   19   109.500 107.804   0.251 F   0
   18   23   22   108.600 106.472   0.209 F   0
   19   20   18   120.000 119.371   0.178 F   0
   19   24   18   120.000 118.442   0.242 F   0
   19   24   20   120.000 122.185   0.176 F   0
   24   25   19   115.000 119.835   0.409 F   0
   24   28   19   115.000 121.044   0.333 F   0
   24   28   25   104.000 115.123   0.182 F   0
   25   26   24   109.500 110.055   0.307 F   0
   25   29   24   109.500 108.350   0.253 F   0
   25   29   26   109.500 111.520   0.251 F   0
   25   30   24   109.500 108.055   0.253 F   0
   25   30   26   109.500 109.740   0.251 F   0
   25   30   29   108.600 109.040   0.209 F   0
   26   27   25   120.000 117.970   0.177 F   0
   26   31   25   120.000 121.699   0.241 F   0
   26   31   27   120.000 120.319   0.174 F   0
   31   32   26   113.000 126.625   0.042 F   0
   31   33   26   113.000 119.034   0.211 F   0
   31   33   32   113.000 114.150   0.105 F   0
   32   34   31   120.000 110.238   0.204 F   0
   32   35   31   120.000 108.802   0.204 F   0
   32   35   34   120.000 108.310   0.167 F   0
 torsion atoms        nrot   rings    phi0    phi      FC
    3    1    4    2   2      0     180.000  28.163   0.765
    3    1    7    2   2      0     180.000 173.208   1.135
    4    3    5    1   3      0     180.000 130.323   0.024
    4    3    5    7   3      0     180.000  82.578   0.032
    4    3    8    1   3      0     180.000   7.903   0.034
    4    3    8    7   3      0     180.000 155.002   0.045
    4    3    9    1   3      0     180.000 106.073   0.034
    4    3    9    7   3      0     180.000  41.026   0.045
    5    4    6    3   3      0     180.000  77.526   0.066
    5    4    6    8   3      0     180.000 161.636   0.115
    5    4    6    9   3      0     180.000  45.638   0.115
    5    4   10    3   3      0     180.000 103.610   0.041
    5    4   10    8   3      0     180.000  17.229   0.072
    5    4   10    9   3      0     180.000 133.227   0.072
   10    5   11    4   2      0     180.000 176.786   0.615
   10    5   11    6   2      0     180.000   2.050   0.833
   10    5   14    4   2      0     180.000  18.139   0.912
   10    5   14    6   2      0     180.000 163.025   1.236
   11   10   12    5   3      0     180.000 116.288   0.022
   11   10   12   14   3      0     180.000  49.614   0.032
   11   10   15    5   3      0     180.000 118.648   0.032
   11   10   15   14   3      0     180.000  75.450   0.045
   11   10   16    5   3      0     180.000   2.270   0.032
   11   10   16   14   3      0     180.000 168.171   0.045
   12   11   13   10   3      0     180.000  45.274   0.066
   12   11   13   15   3      0     180.000 168.363   0.115
   12   11   13   16   3      0     180.000  72.869   0.115
   12   11   17   10   3      0     180.000 135.868   0.041
   12   11   17   15   3      0     180.000  12.778   0.072
   12   11   17   16   3      0     180.000 105.989   0.072
   17   12   18   11   2      0     180.000   3.159   0.614
   17   12   18   13   2      0     180.000 175.680   0.832
   17   12   21   11   2      0     180.000 172.016   0.911
   17   12   21   13   2      0     180.000   6.823   1.235
   18   17   19   12   3      0     180.000 120.925   0.022
   18   17   19   21   3      0     180.000  48.369   0.032
   18   17   22   12   3      0     180.000 116.064   0.032
   18   17   22   21   3      0     180.000  74.642   0.045
   18   17   23   12   3      0     180.000   0.815   0.032
   18   17   23   21   3      0     180.000 168.479   0.045
   19   18   20   17   3      0     180.000  76.059   0.066
   19   18   20   22   3      0     180.000 161.815   0.115
   19   18   20   23   3      0     180.000  45.669   0.115
   19   18   24   17   3      0     180.000 103.418   0.041
   19   18   24   22   3      0     180.000  18.709   0.072
   19   18   24   23   3      0     180.000 134.855   0.072
   24   19   25   18   2      0     180.000 170.761   0.620
   24   19   25   20   2      0     180.000   8.700   0.840
   24   19   28   18   2      0     180.000  14.348   0.920
   24   19   28   20   2      0     180.000 165.113   1.247
   25   24   26   19   3      0     180.000 113.864   0.022
   25   24   26   28   3      0     180.000  43.885   0.032
   25   24   29   19   3      0     180.000 123.960   0.032
   25   24   29   28   3      0     180.000  78.291   0.045
   25   24   30   19   3      0     180.000   5.950   0.032
   25   24   30   28   3      0     180.000 163.699   0.045
   26   25   27   24   3      0     180.000  39.157   0.066
   26   25   27   29   3      0     180.000 159.436   0.115
   26   25   27   30   3      0     180.000  79.629   0.115
   26   25   31   24   3      0     180.000 142.103   0.041
   26   25   31   29   3      0     180.000  21.824   0.072
   26   25   31   30   3      0     180.000  99.111   0.072
   31   26   32   25   2      0     180.000   2.095   0.343
   31   26   32   27   2      0     180.000 179.194   0.465
   31   26   33   25   2      0     180.000 172.568   0.489
   31   26   33   27   2      0     180.000   6.143   0.663
   32   31   34   26   2      0     180.000  90.690   1.385
   32   31   34   33   2      0     180.000  94.423   1.974
   32   31   35   26   2      0     180.000  27.944   1.385
   32   31   35   33   2      0     180.000 146.942   1.974
 out-of-plane atoms          phi0    phi      FC
    3    7    1    4          0.000  30.191   0.133
    5    6   10    4          0.000  -1.047  23.920
   10   14    5   11          0.000  12.895   0.125
   12   13   17   11          0.000  -0.979  23.974
   17   21   12   18          0.000   8.878   0.130
   19   20   24   18          0.000   0.474  24.122
   24   28   19   25          0.000  20.311   0.116
   26   27   31   25          0.000  -1.097  28.543
   31   33   26   32          0.000   4.281  -0.052
   32   34   35   31          0.000  55.199   0.552
          #tors  :   80
          #nmol  :   6
          #optfrag :   6

 GFN-FF setup done.

           ------------------------------------------------- 
          |                   G F N - F F                   |
          |          A general generic force-field          |
          |                  Version 1.0.3                  | 
           ------------------------------------------------- 
      * Solvation model:               ALPB
        Solvent                        water
        Parameter file                 internal GFN-FF/ALPB
        Dielectric constant                8.0200E+01
        Reference state                gsolv [1 M gas/solution]
        Free energy shift                  3.6494E-04 Eh       2.2900E-01 kcal/mol
        Temperature                        2.9815E+02 K
        Density                            1.0000E+00 kg/L
        Solvent mass                       1.8000E+01 g/mol
        Interaction kernel             P16
        Born radius scaling (c1)           1.5056E+00
        Born radii integrator          GBOBC
        Born offset                        0.0000E+00 a0       0.0000E+00 AA
        H-bond correction              true
        Ion screening                  false
        Surface tension                    1.0000E-05 Eh       1.5569E+01 dyn/cm
        Grid points                               230 per atom
          Number of HB bonds (bound hydrogen)     342
          Number of HB bonds (unbound hydrogen)   44
          Number of XB bonds                      0

 E+G (total)                   0 d,  0 h,  0 min,  0.001 sec
 distance/D3 list               ...        0 min,  0.000 sec (  0.318%)
 non bonded repulsion           ...        0 min,  0.000 sec (  2.314%)
 dCN                            ...        0 min,  0.000 sec (  3.391%)
 EEQ energy and q               ...        0 min,  0.000 sec (  4.472%)
 D3                             ...        0 min,  0.000 sec (  6.710%)
 EEQ gradient                   ...        0 min,  0.000 sec (  2.778%)
 bonds                          ...        0 min,  0.000 sec (  0.574%)
 bend and torsion               ...        0 min,  0.000 sec (  2.342%)
 bonded ATM                     ...        0 min,  0.000 sec (  1.003%)
 HB/XB (incl list setup)        ...        0 min,  0.000 sec (  7.266%)
 GBSA                           ...        0 min,  0.001 sec ( 69.977%)

         :::::::::::::::::::::::::::::::::::::::::::::::::::::
         ::                     SUMMARY                     ::
         :::::::::::::::::::::::::::::::::::::::::::::::::::::
         :: total energy              -6.225499003207 Eh    ::
         :: total w/o Gsolv           -6.187582407450 Eh    ::
         :: total w/o Gsasa/hb        -6.220425653878 Eh    ::
         :: gradient norm              0.173991945400 Eh/a0 ::
         ::.................................................::
         :: bond energy               -6.279147326319 Eh    ::
         :: angle energy               0.026467484985 Eh    ::
         :: torsion energy             0.021385204163 Eh    ::
         :: repulsion energy           0.385922775467 Eh    ::
         :: electrostat energy        -0.310636808468 Eh    ::
         :: dispersion energy         -0.023058247890 Eh    ::
         :: HB energy                 -0.000798593144 Eh    ::
         :: XB energy                  0.000000000000 Eh    ::
         :: bonded atm energy         -0.007716896245 Eh    ::
         :: external energy            0.000000000000 Eh    ::
         :: -> Gsolv                  -0.037916595756 Eh    ::
         ::    -> Gborn               -0.032843246428 Eh    ::
         ::    -> Gsasa                0.009730734222 Eh    ::
         ::    -> Ghb                 -0.015169022805 Eh    ::
         ::    -> Gshift               0.000364939255 Eh    ::
         :: add. restraining           0.000000000000 Eh    ::
         :: total charge              -0.000000000000 e     ::
         ::.................................................::
         :: atomisation energy         0.000000000000 Eh    ::
         :::::::::::::::::::::::::::::::::::::::::::::::::::::

      ----------------------------------------------------------- 
     |                   =====================                   |
     |                        A N C O P T                        |
     |                   =====================                   |
     |               Approximate Normal Coordinate               |
     |                Rational Function Optimizer                |
      ----------------------------------------------------------- 

          ...................................................
          :                      SETUP                      :
          :.................................................:
          :   optimization level         verytight          :
          :   max. optcycles                    10          :
          :   ANC micro-cycles                  10          :
          :   degrees of freedom                99          :
          :.................................................:
          :   RF solver                   davidson          :
          :   write xtbopt.log                true          :
          :   linear?                        false          :
          :   energy convergence         0.1000000E-06 Eh   :
          :   grad. convergence          0.2000000E-03 Eh/α :
          :   maxmium RF displ.          1.0000000          :
          :   Hlow (freq-cutoff)         0.1000000E-01      :
          :   Hmax (freq-cutoff)         5.0000000          :
          :   S6 in model hess.         20.0000000          :
          ...................................................

generating ANC from model Hessian ...
Using GFN-FF Lindh-Hessian
 Shifting diagonal of input Hessian by    0.0000000000000000     
 Lowest  eigenvalues of input Hessian
    0.000000    0.000000    0.000000    0.000000    0.000000    0.000000
    0.019857    0.021487    0.024207    0.030817    0.052000    0.059735
    0.079824    0.082311    0.090897    0.095513    0.116360    0.120794
 Highest eigenvalues
    3.359717    3.487896    3.789653    3.815103    4.211181    4.335321


........................................................................
.............................. CYCLE    1 ..............................
........................................................................
     iter. time                 ...        0 min,  0.001 sec
 * total energy  :    -6.2254990 Eh     change        0.0000000E+00 Eh
   gradient norm :     0.1739919 Eh/α   predicted     0.0000000E+00 (    NaN%)
   displ. norm   :     0.0906018 α      lambda       -0.1159900E-01
   maximum displ.:     0.0346607 α      in ANC's #42, #89, #83, ...

........................................................................
.............................. CYCLE    2 ..............................
........................................................................
     iter. time                 ...        0 min,  0.001 sec
 * total energy  :    -6.2331309 Eh     change       -0.7631875E-02 Eh
   gradient norm :     0.0616939 Eh/α   predicted    -0.5847112E-02 ( -23.39%)
   displ. norm   :     0.0518975 α      lambda       -0.2362780E-02
   maximum displ.:     0.0186492 α      in ANC's #89, #9, #42, ...

........................................................................
.............................. CYCLE    3 ..............................
........................................................................
     iter. time                 ...        0 min,  0.001 sec
 * total energy  :    -6.2344417 Eh     change       -0.1310784E-02 Eh
   gradient norm :     0.0158920 Eh/α   predicted    -0.1184638E-02 (  -9.62%)
   displ. norm   :     0.0197903 α      lambda       -0.1859004E-03
   maximum displ.:     0.0085528 α      in ANC's #34, #16, #22, ...

........................................................................
.............................. CYCLE    4 ..............................
........................................................................
     iter. time                 ...        0 min,  0.001 sec
 * total energy  :    -6.2345767 Eh     change       -0.1350038E-03 Eh
   gradient norm :     0.0086918 Eh/α   predicted    -0.9677316E-04 ( -28.32%)
   displ. norm   :     0.0162899 α      lambda       -0.7930776E-04
   maximum displ.:     0.0080790 α      in ANC's #34, #16, #17, ...

........................................................................
.............................. CYCLE    5 ..............................
........................................................................
     iter. time                 ...        0 min,  0.001 sec
 * total energy  :    -6.2346221 Eh     change       -0.4545527E-04 Eh
   gradient norm :     0.0029020 Eh/α   predicted    -0.3967976E-04 ( -12.71%)
   displ. norm   :     0.0050433 α      lambda       -0.7788107E-05
   maximum displ.:     0.0026777 α      in ANC's #34, #29, #16, ...

........................................................................
.............................. CYCLE    6 ..............................
........................................................................
     iter. time                 ...        0 min,  0.001 sec
 * total energy  :    -6.2346280 Eh     change       -0.5920736E-05 Eh
   gradient norm :     0.0015333 Eh/α   predicted    -0.4165325E-05 ( -29.65%)
   displ. norm   :     0.0073275 α      lambda       -0.4589588E-05
   maximum displ.:     0.0039129 α      in ANC's #34, #29, #16, ...

........................................................................
.............................. CYCLE    7 ..............................
........................................................................
     iter. time                 ...        0 min,  0.000 sec
 * total energy  :    -6.2346310 Eh     change       -0.2910928E-05 Eh
   gradient norm :     0.0014113 Eh/α   predicted    -0.2305704E-05 ( -20.79%)
   displ. norm   :     0.0011628 α      lambda       -0.6829582E-06
   maximum displ.:     0.0004104 α      in ANC's #3, #44, #42, ...

........................................................................
.............................. CYCLE    8 ..............................
........................................................................
     iter. time                 ...        0 min,  0.000 sec
 * total energy  :    -6.2346317 Eh     change       -0.6985117E-06 Eh
   gradient norm :     0.0004468 Eh/α   predicted    -0.3657367E-06 ( -47.64%)
   displ. norm   :     0.0010616 α      lambda       -0.1428311E-06
   maximum displ.:     0.0004381 α      in ANC's #34, #3, #6, ...

........................................................................
.............................. CYCLE    9 ..............................
........................................................................
     iter. time                 ...        0 min,  0.000 sec
 * total energy  :    -6.2346318 Eh     change       -0.1224782E-06 Eh
   gradient norm :     0.0000896 Eh/α   predicted    -0.7710065E-07 ( -37.05%)
   displ. norm   :     0.0007405 α      lambda        0.1260327E-06
   maximum displ.:     0.0003175 α      in ANC's #34, #16, #3, ...

........................................................................
.............................. CYCLE   10 ..............................
........................................................................
     iter. time                 ...        0 min,  0.000 sec
 * total energy  :    -6.2346317 Eh     change        0.8527327E-07 Eh
   gradient norm :     0.0004724 Eh/α   predicted     0.5767954E-07 ( -32.36%)
   displ. norm   :     0.0006738 α      lambda       -0.1484861E-07
   maximum displ.:     0.0002885 α      in ANC's #16, #34, #2, ...

   *** FAILED TO CONVERGE GEOMETRY OPTIMIZATION IN 10 ITERATIONS ***


 ANCopt (total)                0 d,  0 h,  0 min,  0.007 sec
 optimizer setup                ...        0 min,  0.000 sec (  0.776%)
 model hessian                  ...        0 min,  0.000 sec (  3.315%)
 ANC generation                 ...        0 min,  0.001 sec (  8.922%)
 coordinate transformation      ...        0 min,  0.000 sec (  0.449%)
 single point calculation       ...        0 min,  0.005 sec ( 75.178%)
 optimization log               ...        0 min,  0.000 sec (  5.818%)
 hessian update                 ...        0 min,  0.000 sec (  0.648%)
 rational function              ...        0 min,  0.000 sec (  2.699%)

================
 final structure:
================
ATOM      1  C   VAL A   8      -8.870 -11.766   5.465  1.00  0.00           C  
ATOM      2  O   VAL A   8      -7.954 -11.208   6.022  1.00  0.00           O  
ATOM      3  N   GLY A   9      -8.677 -12.669   4.461  1.00  0.00           N  
ATOM      4  CA  GLY A   9      -7.450 -13.462   4.463  1.00  0.00           C  
ATOM      5  C   GLY A   9      -6.722 -13.482   3.175  1.00  0.00           C  
ATOM      6  O   GLY A   9      -7.094 -14.182   2.257  1.00  0.00           O  
ATOM      7  H   GLY A   9      -9.477 -13.179   4.076  1.00  0.00           H  
ATOM      8  HA2 GLY A   9      -6.803 -13.053   5.248  1.00  0.00           H  
ATOM      9  HA3 GLY A   9      -7.686 -14.490   4.765  1.00  0.00           H  
ATOM     10  N   GLY A  10      -5.602 -12.693   3.111  1.00  0.00           N  
ATOM     11  CA  GLY A  10      -4.798 -12.698   1.933  1.00  0.00           C  
ATOM     12  C   GLY A  10      -4.786 -11.351   1.264  1.00  0.00           C  
ATOM     13  O   GLY A  10      -5.846 -10.775   1.130  1.00  0.00           O  
ATOM     14  H   GLY A  10      -5.435 -11.933   3.775  1.00  0.00           H  
ATOM     15  HA2 GLY A  10      -3.798 -13.043   2.200  1.00  0.00           H  
ATOM     16  HA3 GLY A  10      -5.228 -13.433   1.242  1.00  0.00           H  
ATOM     17  N   GLY A  11      -3.626 -10.767   0.785  1.00  0.00           N  
ATOM     18  CA  GLY A  11      -2.287 -11.352   0.783  1.00  0.00           C  
ATOM     19  C   GLY A  11      -1.731 -11.452  -0.604  1.00  0.00           C  
ATOM     20  O   GLY A  11      -2.131 -12.327  -1.341  1.00  0.00           O  
ATOM     21  H   GLY A  11      -3.705  -9.916   0.233  1.00  0.00           H  
ATOM     22  HA2 GLY A  11      -1.634 -10.747   1.420  1.00  0.00           H  
ATOM     23  HA3 GLY A  11      -2.305 -12.354   1.214  1.00  0.00           H  
ATOM     24  N   GLY A  12      -0.785 -10.535  -1.001  1.00  0.00           N  
ATOM     25  CA  GLY A  12      -0.375 -10.470  -2.386  1.00  0.00           C  
ATOM     26  C   GLY A  12      -0.816  -9.167  -3.011  1.00  0.00           C  
ATOM     27  O   GLY A  12      -1.890  -8.721  -2.698  1.00  0.00           O  
ATOM     28  H   GLY A  12      -0.622  -9.681  -0.466  1.00  0.00           H  
ATOM     29  HA2 GLY A  12       0.709 -10.606  -2.432  1.00  0.00           H  
ATOM     30  HA3 GLY A  12      -0.845 -11.304  -2.913  1.00  0.00           H  
ATOM     31  N   GLY A  13       0.020  -8.521  -3.931  1.00  0.00           N  
ATOM     32  CA  GLY A  13       1.296  -8.874  -4.357  1.00  0.00           C  
ATOM     33  H   GLY A  13      -0.363  -7.663  -4.360  1.00  0.00           H  
ATOM     34  HA2 GLY A  13       2.082  -8.458  -3.735  1.00  0.00           H  
ATOM     35  HA3 GLY A  13       1.409  -9.968  -4.298  1.00  0.00           H  
END

 Bond Distances (Angstroems)
 ---------------------------
C1-O2=1.2084         C1-N3=1.3645         O2-C1=1.2084         N3-C1=1.3645         N3-C4=1.4608         N3-H7=1.0239         
C4-N3=1.4608         C4-C5=1.4798         C4-H8=1.0961         C4-H9=1.0977         C5-C4=1.4798         C5-O6=1.2127         
C5-N10=1.3716        O6-C5=1.2127         H7-N3=1.0239         H8-C4=1.0961         H9-C4=1.0977         N10-C5=1.3716        
N10-C11=1.4264       N10-H14=1.0227       C11-N10=1.4264       C11-C12=1.5044       C11-H15=1.0908       C11-H16=1.0972       
C12-C11=1.5044       C12-O13=1.2137       C12-N17=1.3843       O13-C12=1.2137       H14-N10=1.0227       H15-C11=1.0908       
H16-C11=1.0972       N17-C12=1.3843       N17-C18=1.4614       N17-H21=1.0171       C18-N17=1.4614       C18-C19=1.4973       
C18-H22=1.0948       C18-H23=1.0907       C19-C18=1.4973       C19-O20=1.2123       C19-N24=1.3760       O20-C19=1.2123       
H21-N17=1.0171       H22-C18=1.0948       H23-C18=1.0907       N24-C19=1.3760       N24-C25=1.4456       N24-H28=1.0210       
C25-N24=1.4456       C25-C26=1.5106       C25-H29=1.0937       C25-H30=1.0932       C26-C25=1.5106       C26-O27=1.2045       
C26-N31=1.4011       O27-C26=1.2045       H28-N24=1.0210       H29-C25=1.0937       H30-C25=1.0932       N31-C26=1.4011       
N31-C32=1.3903       N31-H33=1.0337       C32-N31=1.3903       C32-H34=1.0849       C32-H35=1.1018       H33-N31=1.0337       
H34-C32=1.0849       H35-C32=1.1018       
 C  H  Rav=1.0941 sigma=0.0044  Rmin=1.0849  Rmax=1.1018    10
 C  C  Rav=1.4980 sigma=0.0115  Rmin=1.4798  Rmax=1.5106     4
 N  H  Rav=1.0236 sigma=0.0055  Rmin=1.0171  Rmax=1.0337     5
 N  C  Rav=1.4082 sigma=0.0354  Rmin=1.3645  Rmax=1.4614    10
 O  C  Rav=1.2103 sigma=0.0034  Rmin=1.2045  Rmax=1.2137     5

 selected bond angles (degree)
 --------------------
N3-C1-O2=122.52                C4-N3-C1=118.51                H7-N3-C1=119.75                H7-N3-C4=112.76                
C5-C4-N3=114.78                H8-C4-N3=107.08                H8-C4-C5=109.80                H9-C4-N3=109.12                
H9-C4-C5=109.45                H9-C4-H8=106.26                O6-C5-C4=121.06                N10-C5-C4=115.73               
N10-C5-O6=123.18               C11-N10-C5=119.77              H14-N10-C5=122.06              H14-N10-C11=116.51             

 selected dihedral angles (degree)
 ---------------------------------
C4-N3-C1-O2= 29.75            H7-N3-C1-O2=174.58            C5-C4-N3-C1=229.41            C5-C4-N3-H7= 82.25            
H8-C4-N3-C1=351.56            H8-C4-N3-H7=204.40            H9-C4-N3-C1=106.17            H9-C4-N3-H7=319.01            
O6-C5-C4-N3=281.99            O6-C5-C4-H8=161.33            O6-C5-C4-H9= 45.05            N10-C5-C4-N3=103.59           
N10-C5-C4-H8=342.93           N10-C5-C4-H9=226.66           C11-N10-C5-C4=176.87          C11-N10-C5-O6=358.52          
H14-N10-C5-C4=341.72          H14-N10-C5-O6=163.37          
           -------------------------------------------------
          |                Final Singlepoint                |
           -------------------------------------------------
         :::::::::::::::::::::::::::::::::::::::::::::::::::::
         ::                     SUMMARY                     ::
         :::::::::::::::::::::::::::::::::::::::::::::::::::::
         :: total energy              -6.234631779961 Eh    ::
         :: total w/o Gsolv           -6.196999769210 Eh    ::
         :: total w/o Gsasa/hb        -6.229796683204 Eh    ::
         :: gradient norm              0.000072888607 Eh/a0 ::
         ::.................................................::
         :: bond energy               -6.298107116161 Eh    ::
         :: angle energy               0.025845752055 Eh    ::
         :: torsion energy             0.023921147335 Eh    ::
         :: repulsion energy           0.389416411197 Eh    ::
         :: electrostat energy        -0.311053492844 Eh    ::
         :: dispersion energy         -0.023063118119 Eh    ::
         :: HB energy                 -0.000802744046 Eh    ::
         :: XB energy                  0.000000000000 Eh    ::
         :: bonded atm energy         -0.007542920039 Eh    ::
         :: external energy            0.000000000000 Eh    ::
         :: -> Gsolv                  -0.037632010751 Eh    ::
         ::    -> Gborn               -0.032796913994 Eh    ::
         ::    -> Gsasa                0.009770248609 Eh    ::
         ::    -> Ghb                 -0.014970284621 Eh    ::
         ::    -> Gshift               0.000364939255 Eh    ::
         :: add. restraining           0.004386311413 Eh    ::
         :: total charge              -0.000000000000 e     ::
         ::.................................................::
         :: atomisation energy         0.000000000000 Eh    ::
         :::::::::::::::::::::::::::::::::::::::::::::::::::::

           -------------------------------------------------
          |                Property Printout                |
           -------------------------------------------------
           -------------------------------------------------
          |                Geometry Summary                 |
           -------------------------------------------------

      molecular mass/u    :      285.2570109
   center of mass at/Å    :       -4.0069874     -11.3217233       0.7736870
  moments of inertia/u·Å² :        0.4691611E+03   0.5839696E+04   0.6020565E+04
rotational constants/cm⁻¹ :        0.3593143E-01   0.2886731E-02   0.2800008E-02

 * 30 selected distances

     #   Z          #   Z                                           value/Å
     1   6  C       3   7  N                                      1.3645469
     3   7  N       4   6  C                                      1.4607748
     4   6  C       5   6  C                                      1.4798267 (max)
     5   6  C       6   8  O                                      1.2127467
     3   7  N       7   1  H                                      1.0238501
     4   6  C       8   1  H                                      1.0960521
     4   6  C       9   1  H                                      1.0976569
     5   6  C      10   7  N                                      1.3716216
    10   7  N      11   6  C                                      1.4263990
    12   6  C      13   8  O                                      1.2136817
    10   7  N      14   1  H                                      1.0226798
    11   6  C      15   1  H                                      1.0907674
    11   6  C      16   1  H                                      1.0971685
    12   6  C      17   7  N                                      1.3842548
    17   7  N      18   6  C                                      1.4613988
    19   6  C      20   8  O                                      1.2123283
    17   7  N      21   1  H                                      1.0170727 (min)
    18   6  C      22   1  H                                      1.0947756
    18   6  C      23   1  H                                      1.0906899
    19   6  C      24   7  N                                      1.3759704
    24   7  N      25   6  C                                      1.4456249
    26   6  C      27   8  O                                      1.2045478
    24   7  N      28   1  H                                      1.0209595
    25   6  C      29   1  H                                      1.0936603
    25   6  C      30   1  H                                      1.0932463
    26   6  C      31   7  N                                      1.4010586
    31   7  N      32   6  C                                      1.3902635
    31   7  N      33   1  H                                      1.0336692
    32   6  C      34   1  H                                      1.0849315
    32   6  C      35   1  H                                      1.1017598

 * 5 distinct bonds (by element types)

   Z      Z             #   av. dist./Å        max./Å        min./Å
   1 H    6 C          10     1.0940708     1.1017598     1.0849315
   6 C    6 C           1     1.4798267     1.4798267     1.4798267
   1 H    7 N           5     1.0236463     1.0336692     1.0170727
   6 C    7 N          10     1.4081913     1.4613988     1.3645469
   6 C    8 O           4     1.2108261     1.2136817     1.2045478


optimized geometry written to: xtbopt.pdb


           -------------------------------------------------
          | TOTAL ENERGY               -6.234631779961 Eh   |
          | GRADIENT NORM               0.000072888607 Eh/α |
           -------------------------------------------------
########################################################################
[WARNING] Runtime exception occurred
-1- gfnff_setup: Could not read topology file.
########################################################################

------------------------------------------------------------------------
 unit  open   action     filename
   10 false : read       xtb_settings.inp
   10 false : read       substructure_79.pdb
   10 false : read       xtb_settings.inp
   10 false : written    gfnff_topo
   10 false : written    gfnff_adjacency
   10 false : written    gfnff_charges
   10 false : deleted    .xtboptok
   10 false : replaced   xtbopt.log
   11 false : created    .xtboptok
   11 false : replaced   gfnff_charges
   10 false : replaced   xtbopt.pdb

------------------------------------------------------------------------
 * finished run on 2025/05/27 at 09:37:58.764     
------------------------------------------------------------------------
 total:
 * wall-time:     0 d,  0 h,  0 min,  0.012 sec
 *  cpu-time:     0 d,  0 h,  0 min,  0.012 sec
 * ratio c/w:     0.999 speedup
 SCF:
 * wall-time:     0 d,  0 h,  0 min,  0.001 sec
 *  cpu-time:     0 d,  0 h,  0 min,  0.001 sec
 * ratio c/w:     1.000 speedup
 ANC optimizer:
 * wall-time:     0 d,  0 h,  0 min,  0.008 sec
 *  cpu-time:     0 d,  0 h,  0 min,  0.008 sec
 * ratio c/w:     1.000 speedup

