      -----------------------------------------------------------      
     |                   =====================                   |     
     |                           x T B                           |     
     |                   =====================                   |     
     |                         S. Grimme                         |     
     |          Mulliken Center for Theoretical Chemistry        |     
     |                    University of Bonn                     |     
      -----------------------------------------------------------      

   * xtb version 6.6.1 (8d0f1dd) compiled by 'conda@1efc2f54142f' on 2023-08-01

   xtb is free software: you can redistribute it and/or modify it under
   the terms of the GNU Lesser General Public License as published by
   the Free Software Foundation, either version 3 of the License, or
   (at your option) any later version.
   
   xtb is distributed in the hope that it will be useful,
   but WITHOUT ANY WARRANTY; without even the implied warranty of
   MERCHANTABILITY or FITNESS FOR A PARTICULAR PURPOSE.  See the
   GNU Lesser General Public License for more details.
   
   Cite this work as:
   * C. Bannwarth, E. Caldeweyher, S. Ehlert, A. Hansen, P. Pracht,
     J. Seibert, S. Spicher, S. Grimme, WIREs Comput. Mol. Sci., 2020, 11,
     e01493. DOI: 10.1002/wcms.1493
   
   for GFN2-xTB:
   * C. Bannwarth, S. Ehlert and S. Grimme., J. Chem. Theory Comput., 2019,
     15, 1652-1671. DOI: 10.1021/acs.jctc.8b01176
   for GFN1-xTB:
   * S. Grimme, C. Bannwarth, P. Shushkov, J. Chem. Theory Comput., 2017,
     13, 1989-2009. DOI: 10.1021/acs.jctc.7b00118
   for GFN0-xTB:
   * P. Pracht, E. Caldeweyher, S. Ehlert, S. Grimme, ChemRxiv, 2019, preprint.
     DOI: 10.26434/chemrxiv.8326202.v1
   for GFN-FF:
   * S. Spicher and S. Grimme, Angew. Chem. Int. Ed., 2020, 59, 15665-15673.
     DOI: 10.1002/anie.202004239
   
   for ALPB and GBSA implicit solvation:
   * S. Ehlert, M. Stahn, S. Spicher, S. Grimme, J. Chem. Theory Comput.,
     2021, 17, 4250-4261. DOI: 10.1021/acs.jctc.1c00471
   
   for DFT-D4:
   * E. Caldeweyher, C. Bannwarth and S. Grimme, J. Chem. Phys., 2017,
     147, 034112. DOI: 10.1063/1.4993215
   * E. Caldeweyher, S. Ehlert, A. Hansen, H. Neugebauer, S. Spicher,
     C. Bannwarth and S. Grimme, J. Chem. Phys., 2019, 150, 154122.
     DOI: 10.1063/1.5090222
   * E. Caldeweyher, J.-M. Mewes, S. Ehlert and S. Grimme, Phys. Chem. Chem. Phys.
     2020, 22, 8499-8512. DOI: 10.1039/D0CP00502A
   
   for sTDA-xTB:
   * S. Grimme and C. Bannwarth, J. Chem. Phys., 2016, 145, 054103.
     DOI: 10.1063/1.4959605
   
   in the mass-spec context:
   * V. Asgeirsson, C. Bauer and S. Grimme, Chem. Sci., 2017, 8, 4879.
     DOI: 10.1039/c7sc00601b
   * J. Koopman and S. Grimme, ACS Omega 2019, 4, 12, 15120-15133.
     DOI: 10.1021/acsomega.9b02011
   
   for metadynamics refer to:
   * S. Grimme, J. Chem. Theory Comput., 2019, 155, 2847-2862
     DOI: 10.1021/acs.jctc.9b00143
   
   for SPH calculations refer to:
   * S. Spicher and S. Grimme, J. Chem. Theory Comput., 2021, 17, 1701-1714
     DOI: 10.1021/acs.jctc.0c01306
   
   with help from (in alphabetical order)
   P. Atkinson, C. Bannwarth, F. Bohle, G. Brandenburg, E. Caldeweyher
   M. Checinski, S. Dohm, S. Ehlert, S. Ehrlich, I. Gerasimov, C. Hölzer
   A. Katbashev, J. Koopman, C. Lavigne, S. Lehtola, F. März, M. Müller,
   F. Musil, H. Neugebauer, J. Pisarek, C. Plett, P. Pracht, F. Pultar,
   J. Seibert, P. Shushkov, S. Spicher, M. Stahn, M. Steiner, T. Strunk,
   J. Stückrath, T. Rose, and J. Unsleber
   
 * started run on 2025/05/27 at 09:37:42.219     

           -------------------------------------------------
          |                Calculation Setup                |
           -------------------------------------------------

          program call               : xtb substructure_24.pdb --gfnff --input xtb_settings.inp --opt vtight --alpb water --verbose
          coordinate file            : substructure_24.pdb
          xtbhome directory          : /home/dargen3
          path for xtb               : /home/dargen3
          xcontrol input file        : xtb_settings.inp
          omp threads                :                     1

$$$$$$$$$$$$$$$$$$$$$$$$$$$$$$$$$$$$$$$$$$$$$$$$$$$$$$$$$$$$$$$$$$$$$$$$
 CONSTRAINTS & SCANS: DEBUG SECTION
$$$$$$$$$$$$$$$$$$$$$$$$$$$$$$$$$$$$$$$$$$$$$$$$$$$$$$$$$$$$$$$$$$$$$$$$
   ID    Z sym.   atoms
    1    6  C     1, 4, 5, 11, 12, 18, 19, 25, 26, 32
    2    8  O     2, 6, 13, 20, 27
    3    7  N     3, 10, 17, 24, 31
    4    1  H     7-9, 14-16, 21-23, 28-30, 33-35
> constrain
-> atoms: 1, 2, 3, 4, 5, 6, 7, 8, 9, 10, 11, 12, 13, 14, 15, 16, 18, 24, 25, 26, 27, 28, 29, 30, 31, 32, 33, 34, 35
--> 1: 1
--> 2: 2
--> 3: 3
--> 4: 4
--> 5: 5
--> 6: 6
--> 7: 7
--> 8: 8
--> 9: 9
--> 10: 10
--> 11: 11
--> 12: 12
--> 13: 13
--> 14: 14
--> 15: 15
--> 16: 16
--> 17: 18
--> 18: 24
--> 19: 25
--> 20: 26
--> 21: 27
--> 22: 28
--> 23: 29
--> 24: 30
--> 25: 31
--> 26: 32
--> 27: 33
--> 28: 34
--> 29: 35
-> force constant=1.0
$$$$$$$$$$$$$$$$$$$$$$$$$$$$$$$$$$$$$$$$$$$$$$$$$$$$$$$$$$$$$$$$$$$$$$$$
           -------------------------------------------------
          |                   Constraints                   |
           -------------------------------------------------

 * 29 constrained atom positions
   positions refering to input geometry

     #   Z                                   position/Å      displ./Å
     1   6 C     -8.8930008   -11.7520011     5.4340005     0.0000000
     2   8 O     -7.9440007   -11.1670010     5.9150005     0.0000000
     3   7 N     -8.7100008   -12.7360012     4.4710004     0.0000000
     4   6 C     -7.4510007   -13.4620012     4.4550004     0.0000000
     5   6 C     -6.7440006   -13.4490012     3.1610003     0.0000000
     6   8 O     -7.1860007   -14.0430013     2.2010002     0.0000000
     7   1 H     -9.5090009   -13.2970012     4.1710004     0.0000000
     8   1 H     -6.8160006   -13.0240012     5.2360005     0.0000000
     9   1 H     -7.6330007   -14.5020013     4.7660004     0.0000000
    10   7 N     -5.5620005   -12.7520012     3.1350003     0.0000000
    11   6 C     -4.7940004   -12.6990012     1.9410002     0.0000000
    12   6 C     -4.7620004   -11.3030010     1.3660001     0.0000000
    13   8 O     -5.8060005   -10.6840010     1.3180001     0.0000000
    14   1 H     -5.3330005   -12.0500011     3.8440004     0.0000000
    15   1 H     -3.8030004   -13.0930012     2.1360002     0.0000000
    16   1 H     -5.2780005   -13.3640012     1.2040001     0.0000000
    18   6 C     -2.2890002   -11.3470011     0.7820001     0.0000000
    24   7 N     -0.7460001   -10.6040010    -0.9970001     0.0000000
    25   6 C     -0.3730000   -10.4770010    -2.3880002     0.0000000
    26   6 C     -0.7440001    -9.1050008    -2.9100003     0.0000000
    27   8 O     -1.7820002    -8.6080008    -2.5220002     0.0000000
    28   1 H     -0.4210000    -9.8470009    -0.3920000     0.0000000
    29   1 H      0.6960001   -10.6650010    -2.4830002     0.0000000
    30   1 H     -0.9150001   -11.2360010    -2.9500003     0.0000000
    31   7 N      0.0460000    -8.4400008    -3.8270004     0.0000000
    32   6 C      1.3240001    -8.8870008    -4.3620004     0.0000000
    33   1 H     -0.2940000    -7.5740007    -4.2370004     0.0000000
    34   1 H      2.1300002    -8.5390008    -3.7380003     0.0000000
    35   1 H      1.3430001    -9.9940009    -4.3600004     0.0000000

     applying 406 atom pairwise harmonic potentials
       applied force constant per pair:     0.0357143
     effective force constant per atom:     1.0000000
         constraining energy/grad norm:     0.0000000     0.0000000

     total constraint energy/grad norm:     0.0000000     0.0000000

          charge from pdb residues: 0

          entering GFN-FF setup routine... 35

          ==================== Thresholds ====================
          CN  :   150.00000
          rep :   500.00000
          disp:  2500.00000
          HB1 :   250.00000
          HB2 :   450.00000

          Pauling EN used:
          Z : 1  EN :  2.20
          Z : 6  EN :  2.55
          Z : 7  EN :  3.04
          Z : 8  EN :  3.44
          electric field strengths (au): 0.000

           ------------------------------------------------- 
          |           Force Field Initialization            |
           ------------------------------------------------- 

          distances ...
          ----------------------------------------
          generating topology and atomic info file ...
          pair mat ...
          computing topology distances matrix with Floyd-Warshall algo ...
          making topology EEQ charges ...
          #fragments for EEQ constrain from pdb file: 6
          ----------------------------------------
          generating topology and atomic info file ...
          pair mat ...
          computing topology distances matrix with Floyd-Warshall algo ...
          making topology EEQ charges ...
          #fragments for EEQ constrain from pdb file: 6
          rings ...
          # BATM   270
          # H in HB   15
          doing iterative Hueckel for 5 subsystem(s) ...
          iterative Hueckel run to get P ...
Hueckel system :  1 charge :   0 ndim/Nel :    3    3   eps(HOMO/LUMO)   -0.953512   -0.953512
Hueckel system :  2 charge :   0 ndim/Nel :    3    4   eps(HOMO/LUMO)   -0.911362   -0.911362
Hueckel system :  3 charge :   0 ndim/Nel :    3    4   eps(HOMO/LUMO)   -0.911922   -0.911922
Hueckel system :  4 charge :   0 ndim/Nel :    3    4   eps(HOMO/LUMO)   -0.910012   -0.910012
Hueckel system :  5 charge :   0 ndim/Nel :    4    5   eps(HOMO/LUMO)    1.305315    1.305315
WARNING: probably wrong pi occupation for system 5. Second attempt with Nel=Nel-1!
 at,nb,topo%hyb,Npiel:          26  C             3           2           1
 at,nb,topo%hyb,Npiel:          27  O             1           2           1
 at,nb,topo%hyb,Npiel:          31  N             3           3           2
 at,nb,topo%hyb,Npiel:          32  C             3           2           1

          eigenvalues
 #    :           1          2          3          4
 occ. :        2.000      1.987      0.013      0.000
 eps  :        -4.349     -2.183      1.305      3.389
Hueckel system :  5 charge :   0 ndim/Nel :    4    4   eps(HOMO/LUMO)   -2.182828    1.305315

  atom   neighbors  erfCN metchar sp-hybrid imet pi  qest     coordinates
    1   C      2    1.93   0.00        -2    0    1   0.120  -16.805334  -22.208061   10.268772
    2   O      1    0.98   0.00         2    0    1  -0.120  -15.011984  -21.102572   11.177730
    3   N      3    2.79   0.00        -3    0    1  -0.166  -16.459515  -24.067552    8.448966
    4   C      4    3.50   0.00         3    0    0   0.005  -14.080349  -25.439493    8.418730
    5   C      3    2.80   0.00         2    0    1   0.174  -12.744313  -25.414927    5.973424
    6   O      1    0.98   0.00         2    0    1  -0.352  -13.579572  -26.537424    4.159287
    7   H      1    0.98   0.00         0    0    0   0.153  -17.969406  -25.127688    7.882048
    8   H      1    0.97   0.00         0    0    0   0.093  -12.880373  -24.611793    9.894606
    9   H      1    0.97   0.01         0    0    0   0.093  -14.424280  -27.404808    9.006435
   10   N      3    2.80   0.00        -3    0    1  -0.168  -10.510657  -24.097788    5.924291
   11   C      4    3.50   0.00         3    0    0   0.006   -9.059347  -23.997632    3.667958
   12   C      3    2.79   0.00         2    0    1   0.175   -8.998876  -21.359574    2.581366
   13   O      1    0.98   0.00         2    0    1  -0.352  -10.971750  -20.189834    2.490659
   14   H      1    0.98   0.00         0    0    0   0.154  -10.077909  -22.771200    7.264107
   15   H      1    0.97   0.00         0    0    0   0.092   -7.186628  -24.742184    4.036455
   16   H      1    0.97   0.01         0    0    0   0.092   -9.973974  -25.254300    2.275230
   17   N      3    2.79   0.00        -3    0    1  -0.167   -6.801124  -20.255974    1.693195
   18   C      4    3.49   0.00         3    0    0   0.005   -4.325583  -21.442722    1.477766
   19   C      3    2.80   0.00         2    0    1   0.178   -3.429853  -21.533429   -1.203756
   20   O      1    0.98   0.00         2    0    1  -0.353   -4.499438  -22.899701   -2.698529
   21   H      1    0.98   0.00         0    0    0   0.151   -6.927736  -18.564669    0.789906
   22   H      1    0.97   0.00         0    0    0   0.093   -2.978208  -20.420381    2.668293
   23   H      1    0.97   0.00         0    0    0   0.093   -4.380385  -23.383471    2.199641
   24   N      3    2.79   0.00        -3    0    1  -0.170   -1.409736  -20.038656   -1.884057
   25   C      4    3.49   0.00         3    0    0   0.006   -0.704868  -19.798661   -4.512666
   26   C      3    2.79   0.00         2    0    1   0.195   -1.405956  -17.205956   -5.499103
   27   O      1    0.98   0.00         2    0    1  -0.357   -3.367492  -16.266762   -4.765889
   28   H      1    0.98   0.00         0    0    0   0.147   -0.795575  -18.608133   -0.740773
   29   H      1    0.97   0.00         0    0    0   0.090    1.315249  -20.153929   -4.692190
   30   H      1    0.97   0.00         0    0    0   0.090   -1.729099  -21.232963   -5.574692
   31   N      3    2.79   0.00         3    0    1  -0.226    0.086927  -15.949288   -7.231982
   32   C      3    2.78   0.00         2    0    1  -0.008    2.501997  -16.793996   -8.242985
   33   H      1    0.98   0.00         0    0    0   0.123   -0.555579  -14.312786   -8.006770
   34   H      1    0.97   0.00         0    0    0   0.055    4.025117  -16.136371   -7.063796
   35   H      1    0.97   0.01         0    0    0   0.055    2.537902  -18.885923   -8.239206

molecular fragment  # atoms  topo charge
       1             2            -0.000
       2             7            -0.000
       3             7            -0.000
       4             7             0.000
       5             7             0.000
       6             5            -0.000


          #atoms :   35
          #bonds :   34

 bond atoms        type  in ring    R      R0    piBO    fqq  kbond(tot)  alp
 O  C     2    1      2    0     1.214   0.996   0.799   1.047  -0.252   0.584
 N  C     3    1      2    0     1.389   1.214   0.504   1.047  -0.235   0.524
 C  N     4    3      1    0     1.453   1.326 -99.000   1.033  -0.151   0.496
 C  C     5    4      1    0     1.475   1.333 -99.000   1.013  -0.162   0.475
 O  C     6    5      2    0     1.212   1.031   0.856   1.047  -0.262   0.584
 H  N     7    3      1    0     1.021   0.890 -99.000   1.047  -0.176   0.551
 H  C     8    4      1    0     1.098   0.977 -99.000   1.018  -0.164   0.482
 H  C     9    4      1    0     1.101   0.977 -99.000   1.018  -0.164   0.482
 N  C    10    5      2    0     1.372   1.263   0.503   1.047  -0.234   0.524
 C  N    11   10      1    0     1.421   1.326 -99.000   1.036  -0.151   0.496
 C  C    12   11      1    0     1.510   1.332 -99.000   1.011  -0.162   0.475
 O  C    13   12      2    0     1.215   1.031   0.856   1.047  -0.262   0.584
 H  N    14   10      1    0     1.024   0.890 -99.000   1.047  -0.176   0.551
 H  C    15   11      1    0     1.084   0.977 -99.000   1.016  -0.164   0.482
 H  C    16   11      1    0     1.104   0.977 -99.000   1.016  -0.164   0.482
 N  C    17   12      2    0     1.384   1.263   0.503   1.047  -0.234   0.524
 C  N    18   17      1    0     1.457   1.326 -99.000   1.033  -0.151   0.496
 C  C    19   18      1    0     1.497   1.332 -99.000   1.014  -0.162   0.475
 O  C    20   19      2    0     1.212   1.031   0.856   1.047  -0.262   0.584
 H  N    21   17      1    0     1.017   0.890 -99.000   1.047  -0.176   0.551
 H  C    22   18      1    0     1.094   0.976 -99.000   1.018  -0.164   0.482
 H  C    23   18      1    0     1.096   0.976 -99.000   1.018  -0.164   0.482
 N  C    24   19      2    0     1.378   1.263   0.504   1.047  -0.234   0.524
 C  N    25   24      1    0     1.446   1.326 -99.000   1.034  -0.151   0.496
 C  C    26   25      1    0     1.514   1.332 -99.000   1.011  -0.162   0.475
 O  C    27   26      2    0     1.214   1.018   0.930   1.047  -0.274   0.584
 H  N    28   24      1    0     1.022   0.890 -99.000   1.047  -0.176   0.551
 H  C    29   25      1    0     1.090   0.977 -99.000   1.018  -0.164   0.482
 H  C    30   25      1    0     1.089   0.977 -99.000   1.018  -0.164   0.482
 N  C    31   26      2    0     1.381   1.291   0.346   1.047  -0.203   0.524
 C  N    32   31      2    0     1.456   1.189   0.906   1.006  -0.302   0.524
 H  N    33   31      1    0     1.017   0.890 -99.000   1.047  -0.176   0.551
 H  C    34   32      1    0     1.077   0.950 -99.000   1.029  -0.179   0.490
 H  C    35   32      1    0     1.107   0.949 -99.000   1.029  -0.179   0.490
          #angl  :   55

 angle atoms        phi0    phi      FC  pi rings
    1    3    2   145.000 120.866   0.082 F   0
    3    4    1   115.000 118.402   0.411 F   0
    3    7    1   115.000 119.323   0.335 F   0
    3    7    4   104.000 113.582   0.182 F   0
    4    5    3   109.500 114.871   0.307 F   0
    4    8    3   109.500 107.094   0.253 F   0
    4    8    5   109.500 110.088   0.251 F   0
    4    9    3   109.500 109.004   0.253 F   0
    4    9    5   109.500 109.607   0.251 F   0
    4    9    8   108.600 105.762   0.209 F   0
    5    6    4   120.000 121.048   0.178 F   0
    5   10    4   120.000 115.723   0.243 F   0
    5   10    6   120.000 123.217   0.176 F   0
   10   11    5   115.000 120.030   0.409 F   0
   10   14    5   115.000 121.857   0.333 F   0
   10   14   11   104.000 115.822   0.182 F   0
   11   12   10   109.500 111.467   0.307 F   0
   11   15   10   109.500 109.234   0.253 F   0
   11   15   12   109.500 112.649   0.252 F   0
   11   16   10   109.500 107.547   0.253 F   0
   11   16   12   109.500 108.170   0.252 F   0
   11   16   15   108.600 107.566   0.209 F   0
   12   13   11   120.000 117.900   0.178 F   0
   12   17   11   120.000 122.501   0.243 F   0
   12   17   13   120.000 119.598   0.176 F   0
   17   18   12   115.000 126.890   0.409 F   0
   17   21   12   115.000 118.410   0.333 F   0
   17   21   18   104.000 113.689   0.182 F   0
   18   19   17   109.500 111.880   0.307 F   0
   18   22   17   109.500 109.122   0.253 F   0
   18   22   19   109.500 110.808   0.251 F   0
   18   23   17   109.500 110.655   0.253 F   0
   18   23   19   109.500 107.981   0.251 F   0
   18   23   22   108.600 106.245   0.209 F   0
   19   20   18   120.000 119.339   0.178 F   0
   19   24   18   120.000 118.360   0.242 F   0
   19   24   20   120.000 122.300   0.176 F   0
   24   25   19   115.000 120.135   0.409 F   0
   24   28   19   115.000 121.150   0.333 F   0
   24   28   25   104.000 114.987   0.182 F   0
   25   26   24   109.500 110.370   0.307 F   0
   25   29   24   109.500 108.776   0.253 F   0
   25   29   26   109.500 111.512   0.251 F   0
   25   30   24   109.500 107.874   0.253 F   0
   25   30   26   109.500 109.373   0.251 F   0
   25   30   29   108.600 108.850   0.209 F   0
   26   27   25   120.000 118.041   0.177 F   0
   26   31   25   120.000 121.674   0.241 F   0
   26   31   27   120.000 120.264   0.174 F   0
   31   32   26   113.000 126.752   0.042 F   0
   31   33   26   113.000 119.119   0.211 F   0
   31   33   32   113.000 114.011   0.105 F   0
   32   34   31   120.000 110.170   0.204 F   0
   32   35   31   120.000 108.748   0.204 F   0
   32   35   34   120.000 108.008   0.167 F   0
 torsion atoms        nrot   rings    phi0    phi      FC
    3    1    4    2   2      0     180.000  26.443   0.765
    3    1    7    2   2      0     180.000 172.069   1.135
    4    3    5    1   3      0     180.000 125.665   0.024
    4    3    5    7   3      0     180.000  86.822   0.032
    4    3    8    1   3      0     180.000   3.074   0.034
    4    3    8    7   3      0     180.000 150.587   0.045
    4    3    9    1   3      0     180.000 110.910   0.034
    4    3    9    7   3      0     180.000  36.602   0.045
    5    4    6    3   3      0     180.000  68.944   0.066
    5    4    6    8   3      0     180.000 170.091   0.115
    5    4    6    9   3      0     180.000  54.159   0.115
    5    4   10    3   3      0     180.000 112.291   0.041
    5    4   10    8   3      0     180.000   8.674   0.072
    5    4   10    9   3      0     180.000 124.606   0.072
   10    5   11    4   2      0     180.000 178.919   0.615
   10    5   11    6   2      0     180.000   0.183   0.833
   10    5   14    4   2      0     180.000  18.990   0.912
   10    5   14    6   2      0     180.000 162.274   1.236
   11   10   12    5   3      0     180.000 112.767   0.022
   11   10   12   14   3      0     180.000  50.365   0.032
   11   10   15    5   3      0     180.000 122.103   0.032
   11   10   15   14   3      0     180.000  74.765   0.045
   11   10   16    5   3      0     180.000   5.643   0.032
   11   10   16   14   3      0     180.000 168.775   0.045
   12   11   13   10   3      0     180.000  44.794   0.066
   12   11   13   15   3      0     180.000 167.999   0.115
   12   11   13   16   3      0     180.000  73.242   0.115
   12   11   17   10   3      0     180.000 135.413   0.041
   12   11   17   15   3      0     180.000  12.208   0.072
   12   11   17   16   3      0     180.000 106.551   0.072
   17   12   18   11   2      0     180.000   4.856   0.614
   17   12   18   13   2      0     180.000 174.934   0.832
   17   12   21   11   2      0     180.000 172.580   0.911
   17   12   21   13   2      0     180.000   7.210   1.235
   18   17   19   12   3      0     180.000 118.220   0.022
   18   17   19   21   3      0     180.000  49.997   0.032
   18   17   22   12   3      0     180.000 118.797   0.032
   18   17   22   21   3      0     180.000  72.986   0.045
   18   17   23   12   3      0     180.000   2.238   0.032
   18   17   23   21   3      0     180.000 170.455   0.045
   19   18   20   17   3      0     180.000  68.667   0.066
   19   18   20   22   3      0     180.000 169.311   0.115
   19   18   20   23   3      0     180.000  53.336   0.115
   19   18   24   17   3      0     180.000 111.067   0.041
   19   18   24   22   3      0     180.000  10.954   0.072
   19   18   24   23   3      0     180.000 126.929   0.072
   24   19   25   18   2      0     180.000 171.413   0.620
   24   19   25   20   2      0     180.000   8.313   0.840
   24   19   28   18   2      0     180.000  14.254   0.920
   24   19   28   20   2      0     180.000 165.472   1.247
   25   24   26   19   3      0     180.000 107.624   0.022
   25   24   26   28   3      0     180.000  50.876   0.032
   25   24   29   19   3      0     180.000 129.735   0.032
   25   24   29   28   3      0     180.000  71.765   0.045
   25   24   30   19   3      0     180.000  11.818   0.032
   25   24   30   28   3      0     180.000 170.318   0.045
   26   25   27   24   3      0     180.000  37.598   0.066
   26   25   27   29   3      0     180.000 158.622   0.115
   26   25   27   30   3      0     180.000  80.932   0.115
   26   25   31   24   3      0     180.000 144.064   0.041
   26   25   31   29   3      0     180.000  23.039   0.072
   26   25   31   30   3      0     180.000  97.406   0.072
   31   26   32   25   2      0     180.000   3.203   0.343
   31   26   32   27   2      0     180.000 178.495   0.465
   31   26   33   25   2      0     180.000 172.601   0.489
   31   26   33   27   2      0     180.000   5.701   0.663
   32   31   34   26   2      0     180.000  89.440   1.385
   32   31   34   33   2      0     180.000  94.573   1.974
   32   31   35   26   2      0     180.000  28.757   1.385
   32   31   35   33   2      0     180.000 147.231   1.974
 out-of-plane atoms          phi0    phi      FC
    3    7    1    4          0.000  29.778   0.133
    5    6   10    4          0.000  -1.139  23.920
   10   14    5   11          0.000  15.440   0.125
   12   13   17   11          0.000  -0.177  23.974
   17   21   12   18          0.000   9.790   0.130
   19   20   24   18          0.000   0.241  24.122
   24   28   19   25          0.000  19.616   0.116
   26   27   31   25          0.000  -1.445  28.543
   31   33   26   32          0.000   3.361  -0.052
   32   34   35   31          0.000  55.461   0.552
          #tors  :   80
          #nmol  :   6
          #optfrag :   6

 GFN-FF setup done.

           ------------------------------------------------- 
          |                   G F N - F F                   |
          |          A general generic force-field          |
          |                  Version 1.0.3                  | 
           ------------------------------------------------- 
      * Solvation model:               ALPB
        Solvent                        water
        Parameter file                 internal GFN-FF/ALPB
        Dielectric constant                8.0200E+01
        Reference state                gsolv [1 M gas/solution]
        Free energy shift                  3.6494E-04 Eh       2.2900E-01 kcal/mol
        Temperature                        2.9815E+02 K
        Density                            1.0000E+00 kg/L
        Solvent mass                       1.8000E+01 g/mol
        Interaction kernel             P16
        Born radius scaling (c1)           1.5056E+00
        Born radii integrator          GBOBC
        Born offset                        0.0000E+00 a0       0.0000E+00 AA
        H-bond correction              true
        Ion screening                  false
        Surface tension                    1.0000E-05 Eh       1.5569E+01 dyn/cm
        Grid points                               230 per atom
          Number of HB bonds (bound hydrogen)     343
          Number of HB bonds (unbound hydrogen)   44
          Number of XB bonds                      0

 E+G (total)                   0 d,  0 h,  0 min,  0.001 sec
 distance/D3 list               ...        0 min,  0.000 sec (  0.291%)
 non bonded repulsion           ...        0 min,  0.000 sec (  2.216%)
 dCN                            ...        0 min,  0.000 sec (  3.107%)
 EEQ energy and q               ...        0 min,  0.000 sec (  4.225%)
 D3                             ...        0 min,  0.000 sec (  7.848%)
 EEQ gradient                   ...        0 min,  0.000 sec (  4.478%)
 bonds                          ...        0 min,  0.000 sec (  0.948%)
 bend and torsion               ...        0 min,  0.000 sec (  3.947%)
 bonded ATM                     ...        0 min,  0.000 sec (  1.597%)
 HB/XB (incl list setup)        ...        0 min,  0.000 sec (  9.164%)
 GBSA                           ...        0 min,  0.000 sec ( 64.480%)

         :::::::::::::::::::::::::::::::::::::::::::::::::::::
         ::                     SUMMARY                     ::
         :::::::::::::::::::::::::::::::::::::::::::::::::::::
         :: total energy              -6.225125587242 Eh    ::
         :: total w/o Gsolv           -6.186135372710 Eh    ::
         :: total w/o Gsasa/hb        -6.219939558063 Eh    ::
         :: gradient norm              0.173904128902 Eh/a0 ::
         ::.................................................::
         :: bond energy               -6.279402418433 Eh    ::
         :: angle energy               0.026524424269 Eh    ::
         :: torsion energy             0.021325072166 Eh    ::
         :: repulsion energy           0.386199843498 Eh    ::
         :: electrostat energy        -0.308840768901 Eh    ::
         :: dispersion energy         -0.023126690837 Eh    ::
         :: HB energy                 -0.000639551567 Eh    ::
         :: XB energy                  0.000000000000 Eh    ::
         :: bonded atm energy         -0.008175282903 Eh    ::
         :: external energy            0.000000000000 Eh    ::
         :: -> Gsolv                  -0.038990214532 Eh    ::
         ::    -> Gborn               -0.033804185354 Eh    ::
         ::    -> Gsasa                0.009603835601 Eh    ::
         ::    -> Ghb                 -0.015154804035 Eh    ::
         ::    -> Gshift               0.000364939255 Eh    ::
         :: add. restraining           0.000000000000 Eh    ::
         :: total charge              -0.000000000000 e     ::
         ::.................................................::
         :: atomisation energy         0.000000000000 Eh    ::
         :::::::::::::::::::::::::::::::::::::::::::::::::::::

      ----------------------------------------------------------- 
     |                   =====================                   |
     |                        A N C O P T                        |
     |                   =====================                   |
     |               Approximate Normal Coordinate               |
     |                Rational Function Optimizer                |
      ----------------------------------------------------------- 

          ...................................................
          :                      SETUP                      :
          :.................................................:
          :   optimization level         verytight          :
          :   max. optcycles                    10          :
          :   ANC micro-cycles                  10          :
          :   degrees of freedom                99          :
          :.................................................:
          :   RF solver                   davidson          :
          :   write xtbopt.log                true          :
          :   linear?                        false          :
          :   energy convergence         0.1000000E-06 Eh   :
          :   grad. convergence          0.2000000E-03 Eh/α :
          :   maxmium RF displ.          1.0000000          :
          :   Hlow (freq-cutoff)         0.1000000E-01      :
          :   Hmax (freq-cutoff)         5.0000000          :
          :   S6 in model hess.         20.0000000          :
          ...................................................

generating ANC from model Hessian ...
Using GFN-FF Lindh-Hessian
 Shifting diagonal of input Hessian by    0.0000000000000000     
 Lowest  eigenvalues of input Hessian
    0.000000    0.000000    0.000000    0.000000    0.000000    0.000000
    0.019602    0.021195    0.024483    0.030141    0.052202    0.060043
    0.080250    0.081612    0.090519    0.093338    0.117465    0.124085
 Highest eigenvalues
    3.362645    3.537543    3.796157    3.820940    4.219211    4.329842


........................................................................
.............................. CYCLE    1 ..............................
........................................................................
     iter. time                 ...        0 min,  0.001 sec
 * total energy  :    -6.2251256 Eh     change        0.0000000E+00 Eh
   gradient norm :     0.1739041 Eh/α   predicted     0.0000000E+00 (    NaN%)
   displ. norm   :     0.0900895 α      lambda       -0.1135382E-01
   maximum displ.:     0.0318329 α      in ANC's #42, #89, #9, ...

........................................................................
.............................. CYCLE    2 ..............................
........................................................................
     iter. time                 ...        0 min,  0.001 sec
 * total energy  :    -6.2326495 Eh     change       -0.7523885E-02 Eh
   gradient norm :     0.0618170 Eh/α   predicted    -0.5761504E-02 ( -23.42%)
   displ. norm   :     0.0521762 α      lambda       -0.2337381E-02
   maximum displ.:     0.0186860 α      in ANC's #89, #9, #42, ...

........................................................................
.............................. CYCLE    3 ..............................
........................................................................
     iter. time                 ...        0 min,  0.001 sec
 * total energy  :    -6.2339467 Eh     change       -0.1297216E-02 Eh
   gradient norm :     0.0157990 Eh/α   predicted    -0.1171967E-02 (  -9.66%)
   displ. norm   :     0.0201595 α      lambda       -0.1844613E-03
   maximum displ.:     0.0087818 α      in ANC's #16, #34, #22, ...

........................................................................
.............................. CYCLE    4 ..............................
........................................................................
     iter. time                 ...        0 min,  0.001 sec
 * total energy  :    -6.2340814 Eh     change       -0.1347329E-03 Eh
   gradient norm :     0.0087353 Eh/α   predicted    -0.9610494E-04 ( -28.67%)
   displ. norm   :     0.0179091 α      lambda       -0.8374212E-04
   maximum displ.:     0.0084614 α      in ANC's #34, #16, #1, ...

........................................................................
.............................. CYCLE    5 ..............................
........................................................................
     iter. time                 ...        0 min,  0.000 sec
 * total energy  :    -6.2341299 Eh     change       -0.4848345E-04 Eh
   gradient norm :     0.0030879 Eh/α   predicted    -0.4189732E-04 ( -13.58%)
   displ. norm   :     0.0068821 α      lambda       -0.9719141E-05
   maximum displ.:     0.0030704 α      in ANC's #1, #34, #29, ...

........................................................................
.............................. CYCLE    6 ..............................
........................................................................
     iter. time                 ...        0 min,  0.000 sec
 * total energy  :    -6.2341372 Eh     change       -0.7337999E-05 Eh
   gradient norm :     0.0017735 Eh/α   predicted    -0.5095885E-05 ( -30.55%)
   displ. norm   :     0.0123444 α      lambda       -0.6486496E-05
   maximum displ.:     0.0064752 α      in ANC's #1, #2, #34, ...

........................................................................
.............................. CYCLE    7 ..............................
........................................................................
     iter. time                 ...        0 min,  0.000 sec
 * total energy  :    -6.2341415 Eh     change       -0.4302492E-05 Eh
   gradient norm :     0.0017404 Eh/α   predicted    -0.3252898E-05 ( -24.40%)
   displ. norm   :     0.0029072 α      lambda       -0.1211724E-05
   maximum displ.:     0.0017663 α      in ANC's #1, #2, #3, ...

........................................................................
.............................. CYCLE    8 ..............................
........................................................................
     iter. time                 ...        0 min,  0.000 sec
 * total energy  :    -6.2341428 Eh     change       -0.1271284E-05 Eh
   gradient norm :     0.0006330 Eh/α   predicted    -0.6099023E-06 ( -52.02%)
   displ. norm   :     0.0059787 α      lambda       -0.5843891E-06
   maximum displ.:     0.0041731 α      in ANC's #1, #2, #3, ...

........................................................................
.............................. CYCLE    9 ..............................
........................................................................
     iter. time                 ...        0 min,  0.000 sec
 * total energy  :    -6.2341434 Eh     change       -0.6005549E-06 Eh
   gradient norm :     0.0003272 Eh/α   predicted    -0.3092805E-06 ( -48.50%)
   displ. norm   :     0.0039621 α      lambda        0.7880018E-07
   maximum displ.:     0.0027372 α      in ANC's #1, #2, #3, ...

........................................................................
.............................. CYCLE   10 ..............................
........................................................................
     iter. time                 ...        0 min,  0.000 sec
 * total energy  :    -6.2341434 Eh     change        0.3235693E-07 Eh
   gradient norm :     0.0008540 Eh/α   predicted     0.2369027E-07 ( -26.78%)
   displ. norm   :     0.0015855 α      lambda       -0.2834192E-06
   maximum displ.:     0.0010632 α      in ANC's #1, #2, #3, ...

   *** FAILED TO CONVERGE GEOMETRY OPTIMIZATION IN 10 ITERATIONS ***


 ANCopt (total)                0 d,  0 h,  0 min,  0.007 sec
 optimizer setup                ...        0 min,  0.000 sec (  0.836%)
 model hessian                  ...        0 min,  0.000 sec (  3.499%)
 ANC generation                 ...        0 min,  0.001 sec (  8.974%)
 coordinate transformation      ...        0 min,  0.000 sec (  0.491%)
 single point calculation       ...        0 min,  0.005 sec ( 74.935%)
 optimization log               ...        0 min,  0.000 sec (  5.781%)
 hessian update                 ...        0 min,  0.000 sec (  0.653%)
 rational function              ...        0 min,  0.000 sec (  2.674%)

================
 final structure:
================
ATOM      1  C   VAL A   8      -8.886 -11.767   5.429  1.00  0.00           C  
ATOM      2  O   VAL A   8      -7.959 -11.156   5.908  1.00  0.00           O  
ATOM      3  N   GLY A   9      -8.710 -12.728   4.481  1.00  0.00           N  
ATOM      4  CA  GLY A   9      -7.450 -13.463   4.463  1.00  0.00           C  
ATOM      5  C   GLY A   9      -6.744 -13.447   3.162  1.00  0.00           C  
ATOM      6  O   GLY A   9      -7.185 -14.043   2.203  1.00  0.00           O  
ATOM      7  H   GLY A   9      -9.509 -13.291   4.173  1.00  0.00           H  
ATOM      8  HA2 GLY A   9      -6.812 -13.025   5.239  1.00  0.00           H  
ATOM      9  HA3 GLY A   9      -7.632 -14.502   4.766  1.00  0.00           H  
ATOM     10  N   GLY A  10      -5.562 -12.751   3.136  1.00  0.00           N  
ATOM     11  CA  GLY A  10      -4.799 -12.697   1.932  1.00  0.00           C  
ATOM     12  C   GLY A  10      -4.763 -11.303   1.366  1.00  0.00           C  
ATOM     13  O   GLY A  10      -5.806 -10.683   1.320  1.00  0.00           O  
ATOM     14  H   GLY A  10      -5.332 -12.051   3.845  1.00  0.00           H  
ATOM     15  HA2 GLY A  10      -3.804 -13.093   2.136  1.00  0.00           H  
ATOM     16  HA3 GLY A  10      -5.279 -13.364   1.204  1.00  0.00           H  
ATOM     17  N   GLY A  11      -3.601 -10.722   0.888  1.00  0.00           N  
ATOM     18  CA  GLY A  11      -2.287 -11.353   0.783  1.00  0.00           C  
ATOM     19  C   GLY A  11      -1.810 -11.399  -0.635  1.00  0.00           C  
ATOM     20  O   GLY A  11      -2.368 -12.130  -1.425  1.00  0.00           O  
ATOM     21  H   GLY A  11      -3.669  -9.830   0.405  1.00  0.00           H  
ATOM     22  HA2 GLY A  11      -1.580 -10.804   1.413  1.00  0.00           H  
ATOM     23  HA3 GLY A  11      -2.318 -12.374   1.165  1.00  0.00           H  
ATOM     24  N   GLY A  12      -0.746 -10.605  -0.997  1.00  0.00           N  
ATOM     25  CA  GLY A  12      -0.377 -10.470  -2.388  1.00  0.00           C  
ATOM     26  C   GLY A  12      -0.759  -9.105  -2.916  1.00  0.00           C  
ATOM     27  O   GLY A  12      -1.781  -8.605  -2.520  1.00  0.00           O  
ATOM     28  H   GLY A  12      -0.421  -9.849  -0.392  1.00  0.00           H  
ATOM     29  HA2 GLY A  12       0.694 -10.667  -2.485  1.00  0.00           H  
ATOM     30  HA3 GLY A  12      -0.915 -11.238  -2.950  1.00  0.00           H  
ATOM     31  N   GLY A  13       0.067  -8.468  -3.849  1.00  0.00           N  
ATOM     32  CA  GLY A  13       1.298  -8.872  -4.353  1.00  0.00           C  
ATOM     33  H   GLY A  13      -0.278  -7.563  -4.209  1.00  0.00           H  
ATOM     34  HA2 GLY A  13       2.134  -8.545  -3.744  1.00  0.00           H  
ATOM     35  HA3 GLY A  13       1.343  -9.973  -4.361  1.00  0.00           H  
END

 Bond Distances (Angstroems)
 ---------------------------
C1-O2=1.2087         C1-N3=1.3617         O2-C1=1.2087         N3-C1=1.3617         N3-C4=1.4595         N3-H7=1.0243         
C4-N3=1.4595         C4-C5=1.4798         C4-H8=1.0956         C4-H9=1.0976         C5-C4=1.4798         C5-O6=1.2123         
C5-N10=1.3723        O6-C5=1.2123         H7-N3=1.0243         H8-C4=1.0956         H9-C4=1.0976         N10-C5=1.3723        
N10-C11=1.4259       N10-H14=1.0228       C11-N10=1.4259       C11-C12=1.5053       C11-H15=1.0907       C11-H16=1.0977       
C12-C11=1.5053       C12-O13=1.2140       C12-N17=1.3842       O13-C12=1.2140       H14-N10=1.0228       H15-C11=1.0907       
H16-C11=1.0977       N17-C12=1.3842       N17-C18=1.4610       N17-H21=1.0171       C18-N17=1.4610       C18-C19=1.4970       
C18-H22=1.0947       C18-H23=1.0906       C19-C18=1.4970       C19-O20=1.2122       C19-N24=1.3759       O20-C19=1.2122       
H21-N17=1.0171       H22-C18=1.0947       H23-C18=1.0906       N24-C19=1.3759       N24-C25=1.4454       N24-H28=1.0211       
C25-N24=1.4454       C25-C26=1.5121       C25-H29=1.0936       C25-H30=1.0939       C26-C25=1.5121       C26-O27=1.2052       
C26-N31=1.3993       O27-C26=1.2052       H28-N24=1.0211       H29-C25=1.0936       H30-C25=1.0939       N31-C26=1.3993       
N31-C32=1.3900       N31-H33=1.0335       C32-N31=1.3900       C32-H34=1.0849       C32-H35=1.1022       H33-N31=1.0335       
H34-C32=1.0849       H35-C32=1.1022       
 C  H  Rav=1.0941 sigma=0.0045  Rmin=1.0849  Rmax=1.1022    10
 C  C  Rav=1.4985 sigma=0.0121  Rmin=1.4798  Rmax=1.5121     4
 N  H  Rav=1.0237 sigma=0.0055  Rmin=1.0171  Rmax=1.0335     5
 N  C  Rav=1.4075 sigma=0.0355  Rmin=1.3617  Rmax=1.4610    10
 O  C  Rav=1.2105 sigma=0.0032  Rmin=1.2052  Rmax=1.2140     5

 selected bond angles (degree)
 --------------------
N3-C1-O2=122.28                C4-N3-C1=118.37                H7-N3-C1=119.77                H7-N3-C4=113.15                
C5-C4-N3=114.63                H8-C4-N3=107.03                H8-C4-C5=109.91                H9-C4-N3=109.24                
H9-C4-C5=109.44                H9-C4-H8=106.23                O6-C5-C4=121.10                N10-C5-C4=115.67               
N10-C5-O6=123.21               C11-N10-C5=119.76              H14-N10-C5=121.84              H14-N10-C11=116.03             

 selected dihedral angles (degree)
 ---------------------------------
C4-N3-C1-O2= 27.98            H7-N3-C1-O2=173.45            C5-C4-N3-C1=234.22            C5-C4-N3-H7= 86.57            
H8-C4-N3-C1=356.38            H8-C4-N3-H7=208.73            H9-C4-N3-C1=110.99            H9-C4-N3-H7=323.35            
O6-C5-C4-N3=290.44            O6-C5-C4-H8=169.86            O6-C5-C4-H9= 53.56            N10-C5-C4-N3=112.15           
N10-C5-C4-H8=351.57           N10-C5-C4-H9=235.27           C11-N10-C5-C4=179.00          C11-N10-C5-O6=  0.75          
H14-N10-C5-C4=340.82          H14-N10-C5-O6=162.57          
           -------------------------------------------------
          |                Final Singlepoint                |
           -------------------------------------------------
         :::::::::::::::::::::::::::::::::::::::::::::::::::::
         ::                     SUMMARY                     ::
         :::::::::::::::::::::::::::::::::::::::::::::::::::::
         :: total energy              -6.234143722129 Eh    ::
         :: total w/o Gsolv           -6.195502433589 Eh    ::
         :: total w/o Gsasa/hb        -6.229189332631 Eh    ::
         :: gradient norm              0.000411644134 Eh/a0 ::
         ::.................................................::
         :: bond energy               -6.298389866483 Eh    ::
         :: angle energy               0.025882274280 Eh    ::
         :: torsion energy             0.023784011260 Eh    ::
         :: repulsion energy           0.390046698960 Eh    ::
         :: electrostat energy        -0.309392616515 Eh    ::
         :: dispersion energy         -0.023128884324 Eh    ::
         :: HB energy                 -0.000654904306 Eh    ::
         :: XB energy                  0.000000000000 Eh    ::
         :: bonded atm energy         -0.007995797175 Eh    ::
         :: external energy            0.000000000000 Eh    ::
         :: -> Gsolv                  -0.038641288540 Eh    ::
         ::    -> Gborn               -0.033686899042 Eh    ::
         ::    -> Gsasa                0.009649773489 Eh    ::
         ::    -> Ghb                 -0.014969102242 Eh    ::
         ::    -> Gshift               0.000364939255 Eh    ::
         :: add. restraining           0.004346650714 Eh    ::
         :: total charge              -0.000000000000 e     ::
         ::.................................................::
         :: atomisation energy         0.000000000000 Eh    ::
         :::::::::::::::::::::::::::::::::::::::::::::::::::::

           -------------------------------------------------
          |                Property Printout                |
           -------------------------------------------------
           -------------------------------------------------
          |                Geometry Summary                 |
           -------------------------------------------------

      molecular mass/u    :      285.2570109
   center of mass at/Å    :       -4.0119641     -11.2856289       0.7974520
  moments of inertia/u·Å² :        0.4553128E+03   0.5817037E+04   0.5998797E+04
rotational constants/cm⁻¹ :        0.3702429E-01   0.2897976E-02   0.2810169E-02

 * 30 selected distances

     #   Z          #   Z                                           value/Å
     1   6  C       3   7  N                                      1.3616658
     3   7  N       4   6  C                                      1.4595427
     4   6  C       5   6  C                                      1.4797910 (max)
     5   6  C       6   8  O                                      1.2123089
     3   7  N       7   1  H                                      1.0242537
     4   6  C       8   1  H                                      1.0955795
     4   6  C       9   1  H                                      1.0975885
     5   6  C      10   7  N                                      1.3722942
    10   7  N      11   6  C                                      1.4258867
    12   6  C      13   8  O                                      1.2139920
    10   7  N      14   1  H                                      1.0227684
    11   6  C      15   1  H                                      1.0907093
    11   6  C      16   1  H                                      1.0976610
    12   6  C      17   7  N                                      1.3841809
    17   7  N      18   6  C                                      1.4609863
    19   6  C      20   8  O                                      1.2121808
    17   7  N      21   1  H                                      1.0170531 (min)
    18   6  C      22   1  H                                      1.0947173
    18   6  C      23   1  H                                      1.0905509
    19   6  C      24   7  N                                      1.3759326
    24   7  N      25   6  C                                      1.4454259
    26   6  C      27   8  O                                      1.2051512
    24   7  N      28   1  H                                      1.0210781
    25   6  C      29   1  H                                      1.0936018
    25   6  C      30   1  H                                      1.0938579
    26   6  C      31   7  N                                      1.3992890
    31   7  N      32   6  C                                      1.3899706
    31   7  N      33   1  H                                      1.0335148
    32   6  C      34   1  H                                      1.0849370
    32   6  C      35   1  H                                      1.1022025

 * 5 distinct bonds (by element types)

   Z      Z             #   av. dist./Å        max./Å        min./Å
   1 H    6 C          10     1.0941406     1.1022025     1.0849370
   6 C    6 C           1     1.4797910     1.4797910     1.4797910
   1 H    7 N           5     1.0237336     1.0335148     1.0170531
   6 C    7 N          10     1.4075175     1.4609863     1.3616658
   6 C    8 O           4     1.2109082     1.2139920     1.2051512


optimized geometry written to: xtbopt.pdb


           -------------------------------------------------
          | TOTAL ENERGY               -6.234143722129 Eh   |
          | GRADIENT NORM               0.000411644134 Eh/α |
           -------------------------------------------------
########################################################################
[WARNING] Runtime exception occurred
-1- gfnff_setup: Could not read topology file.
########################################################################

------------------------------------------------------------------------
 unit  open   action     filename
   10 false : read       xtb_settings.inp
   10 false : read       substructure_24.pdb
   10 false : read       xtb_settings.inp
   10 false : written    gfnff_topo
   10 false : written    gfnff_adjacency
   10 false : written    gfnff_charges
   10 false : deleted    .xtboptok
   10 false : replaced   xtbopt.log
   11 false : created    .xtboptok
   11 false : replaced   gfnff_charges
   10 false : replaced   xtbopt.pdb

------------------------------------------------------------------------
 * finished run on 2025/05/27 at 09:37:42.231     
------------------------------------------------------------------------
 total:
 * wall-time:     0 d,  0 h,  0 min,  0.012 sec
 *  cpu-time:     0 d,  0 h,  0 min,  0.012 sec
 * ratio c/w:     1.000 speedup
 SCF:
 * wall-time:     0 d,  0 h,  0 min,  0.001 sec
 *  cpu-time:     0 d,  0 h,  0 min,  0.001 sec
 * ratio c/w:     1.000 speedup
 ANC optimizer:
 * wall-time:     0 d,  0 h,  0 min,  0.008 sec
 *  cpu-time:     0 d,  0 h,  0 min,  0.008 sec
 * ratio c/w:     1.000 speedup

