      -----------------------------------------------------------      
     |                   =====================                   |     
     |                           x T B                           |     
     |                   =====================                   |     
     |                         S. Grimme                         |     
     |          Mulliken Center for Theoretical Chemistry        |     
     |                    University of Bonn                     |     
      -----------------------------------------------------------      

   * xtb version 6.6.1 (8d0f1dd) compiled by 'conda@1efc2f54142f' on 2023-08-01

   xtb is free software: you can redistribute it and/or modify it under
   the terms of the GNU Lesser General Public License as published by
   the Free Software Foundation, either version 3 of the License, or
   (at your option) any later version.
   
   xtb is distributed in the hope that it will be useful,
   but WITHOUT ANY WARRANTY; without even the implied warranty of
   MERCHANTABILITY or FITNESS FOR A PARTICULAR PURPOSE.  See the
   GNU Lesser General Public License for more details.
   
   Cite this work as:
   * C. Bannwarth, E. Caldeweyher, S. Ehlert, A. Hansen, P. Pracht,
     J. Seibert, S. Spicher, S. Grimme, WIREs Comput. Mol. Sci., 2020, 11,
     e01493. DOI: 10.1002/wcms.1493
   
   for GFN2-xTB:
   * C. Bannwarth, S. Ehlert and S. Grimme., J. Chem. Theory Comput., 2019,
     15, 1652-1671. DOI: 10.1021/acs.jctc.8b01176
   for GFN1-xTB:
   * S. Grimme, C. Bannwarth, P. Shushkov, J. Chem. Theory Comput., 2017,
     13, 1989-2009. DOI: 10.1021/acs.jctc.7b00118
   for GFN0-xTB:
   * P. Pracht, E. Caldeweyher, S. Ehlert, S. Grimme, ChemRxiv, 2019, preprint.
     DOI: 10.26434/chemrxiv.8326202.v1
   for GFN-FF:
   * S. Spicher and S. Grimme, Angew. Chem. Int. Ed., 2020, 59, 15665-15673.
     DOI: 10.1002/anie.202004239
   
   for ALPB and GBSA implicit solvation:
   * S. Ehlert, M. Stahn, S. Spicher, S. Grimme, J. Chem. Theory Comput.,
     2021, 17, 4250-4261. DOI: 10.1021/acs.jctc.1c00471
   
   for DFT-D4:
   * E. Caldeweyher, C. Bannwarth and S. Grimme, J. Chem. Phys., 2017,
     147, 034112. DOI: 10.1063/1.4993215
   * E. Caldeweyher, S. Ehlert, A. Hansen, H. Neugebauer, S. Spicher,
     C. Bannwarth and S. Grimme, J. Chem. Phys., 2019, 150, 154122.
     DOI: 10.1063/1.5090222
   * E. Caldeweyher, J.-M. Mewes, S. Ehlert and S. Grimme, Phys. Chem. Chem. Phys.
     2020, 22, 8499-8512. DOI: 10.1039/D0CP00502A
   
   for sTDA-xTB:
   * S. Grimme and C. Bannwarth, J. Chem. Phys., 2016, 145, 054103.
     DOI: 10.1063/1.4959605
   
   in the mass-spec context:
   * V. Asgeirsson, C. Bauer and S. Grimme, Chem. Sci., 2017, 8, 4879.
     DOI: 10.1039/c7sc00601b
   * J. Koopman and S. Grimme, ACS Omega 2019, 4, 12, 15120-15133.
     DOI: 10.1021/acsomega.9b02011
   
   for metadynamics refer to:
   * S. Grimme, J. Chem. Theory Comput., 2019, 155, 2847-2862
     DOI: 10.1021/acs.jctc.9b00143
   
   for SPH calculations refer to:
   * S. Spicher and S. Grimme, J. Chem. Theory Comput., 2021, 17, 1701-1714
     DOI: 10.1021/acs.jctc.0c01306
   
   with help from (in alphabetical order)
   P. Atkinson, C. Bannwarth, F. Bohle, G. Brandenburg, E. Caldeweyher
   M. Checinski, S. Dohm, S. Ehlert, S. Ehrlich, I. Gerasimov, C. Hölzer
   A. Katbashev, J. Koopman, C. Lavigne, S. Lehtola, F. März, M. Müller,
   F. Musil, H. Neugebauer, J. Pisarek, C. Plett, P. Pracht, F. Pultar,
   J. Seibert, P. Shushkov, S. Spicher, M. Stahn, M. Steiner, T. Strunk,
   J. Stückrath, T. Rose, and J. Unsleber
   
 * started run on 2025/05/27 at 09:37:40.760     

           -------------------------------------------------
          |                Calculation Setup                |
           -------------------------------------------------

          program call               : xtb substructure_21.pdb --gfnff --input xtb_settings.inp --opt vtight --alpb water --verbose
          coordinate file            : substructure_21.pdb
          xtbhome directory          : /home/dargen3
          path for xtb               : /home/dargen3
          xcontrol input file        : xtb_settings.inp
          omp threads                :                     1

$$$$$$$$$$$$$$$$$$$$$$$$$$$$$$$$$$$$$$$$$$$$$$$$$$$$$$$$$$$$$$$$$$$$$$$$
 CONSTRAINTS & SCANS: DEBUG SECTION
$$$$$$$$$$$$$$$$$$$$$$$$$$$$$$$$$$$$$$$$$$$$$$$$$$$$$$$$$$$$$$$$$$$$$$$$
   ID    Z sym.   atoms
    1    6  C     1, 4, 5, 11, 12, 18, 19, 25, 26, 32
    2    8  O     2, 6, 13, 20, 27
    3    7  N     3, 10, 17, 24, 31
    4    1  H     7-9, 14-16, 21-23, 28-30, 33-35
> constrain
-> atoms: 1, 2, 3, 4, 5, 6, 7, 8, 9, 10, 11, 12, 13, 14, 15, 16, 18, 24, 25, 26, 27, 28, 29, 30, 31, 32, 33, 34, 35
--> 1: 1
--> 2: 2
--> 3: 3
--> 4: 4
--> 5: 5
--> 6: 6
--> 7: 7
--> 8: 8
--> 9: 9
--> 10: 10
--> 11: 11
--> 12: 12
--> 13: 13
--> 14: 14
--> 15: 15
--> 16: 16
--> 17: 18
--> 18: 24
--> 19: 25
--> 20: 26
--> 21: 27
--> 22: 28
--> 23: 29
--> 24: 30
--> 25: 31
--> 26: 32
--> 27: 33
--> 28: 34
--> 29: 35
-> force constant=1.0
$$$$$$$$$$$$$$$$$$$$$$$$$$$$$$$$$$$$$$$$$$$$$$$$$$$$$$$$$$$$$$$$$$$$$$$$
           -------------------------------------------------
          |                   Constraints                   |
           -------------------------------------------------

 * 29 constrained atom positions
   positions refering to input geometry

     #   Z                                   position/Å      displ./Å
     1   6 C     -8.8980008   -11.7520011     5.4230005     0.0000000
     2   8 O     -7.9460007   -11.1480010     5.8760005     0.0000000
     3   7 N     -8.7240008   -12.7620012     4.4800004     0.0000000
     4   6 C     -7.4510007   -13.4620012     4.4550004     0.0000000
     5   6 C     -6.7530006   -13.4370012     3.1560003     0.0000000
     6   8 O     -7.2090007   -14.0100013     2.1900002     0.0000000
     7   1 H     -9.5190009   -13.3500012     4.2240004     0.0000000
     8   1 H     -6.8200006   -13.0100012     5.2300005     0.0000000
     9   1 H     -7.6090007   -14.5060013     4.7680004     0.0000000
    10   7 N     -5.5520005   -12.7670012     3.1400003     0.0000000
    11   6 C     -4.7940004   -12.6990012     1.9410002     0.0000000
    12   6 C     -4.7560004   -11.2940010     1.3890001     0.0000000
    13   8 O     -5.7960005   -10.6680010     1.3560001     0.0000000
    14   1 H     -5.2960005   -12.0960011     3.8680004     0.0000000
    15   1 H     -3.8050004   -13.1050012     2.1190002     0.0000000
    16   1 H     -5.2900005   -13.3470012     1.1970001     0.0000000
    18   6 C     -2.2890002   -11.3470011     0.7820001     0.0000000
    24   7 N     -0.7410001   -10.6160010    -0.9970001     0.0000000
    25   6 C     -0.3730000   -10.4770010    -2.3880002     0.0000000
    26   6 C     -0.7360001    -9.0980008    -2.8950003     0.0000000
    27   8 O     -1.7650002    -8.5940008    -2.4940002     0.0000000
    28   1 H     -0.3910000    -9.8790009    -0.3820000     0.0000000
    29   1 H      0.6940001   -10.6720010    -2.4900002     0.0000000
    30   1 H     -0.9230001   -11.2260010    -2.9550003     0.0000000
    31   7 N      0.0550000    -8.4320008    -3.8160004     0.0000000
    32   6 C      1.3240001    -8.8870008    -4.3620004     0.0000000
    33   1 H     -0.2800000    -7.5580007    -4.2150004     0.0000000
    34   1 H      2.1380002    -8.5520008    -3.7390003     0.0000000
    35   1 H      1.3330001    -9.9940009    -4.3680004     0.0000000

     applying 406 atom pairwise harmonic potentials
       applied force constant per pair:     0.0357143
     effective force constant per atom:     1.0000000
         constraining energy/grad norm:     0.0000000     0.0000000

     total constraint energy/grad norm:     0.0000000     0.0000000

          charge from pdb residues: 0

          entering GFN-FF setup routine... 35

          ==================== Thresholds ====================
          CN  :   150.00000
          rep :   500.00000
          disp:  2500.00000
          HB1 :   250.00000
          HB2 :   450.00000

          Pauling EN used:
          Z : 1  EN :  2.20
          Z : 6  EN :  2.55
          Z : 7  EN :  3.04
          Z : 8  EN :  3.44
          electric field strengths (au): 0.000

           ------------------------------------------------- 
          |           Force Field Initialization            |
           ------------------------------------------------- 

          distances ...
          ----------------------------------------
          generating topology and atomic info file ...
          pair mat ...
          computing topology distances matrix with Floyd-Warshall algo ...
          making topology EEQ charges ...
          #fragments for EEQ constrain from pdb file: 6
          ----------------------------------------
          generating topology and atomic info file ...
          pair mat ...
          computing topology distances matrix with Floyd-Warshall algo ...
          making topology EEQ charges ...
          #fragments for EEQ constrain from pdb file: 6
          rings ...
          # BATM   270
          # H in HB   15
          doing iterative Hueckel for 5 subsystem(s) ...
          iterative Hueckel run to get P ...
Hueckel system :  1 charge :   0 ndim/Nel :    3    3   eps(HOMO/LUMO)   -0.953512   -0.953512
Hueckel system :  2 charge :   0 ndim/Nel :    3    4   eps(HOMO/LUMO)   -0.911362   -0.911362
Hueckel system :  3 charge :   0 ndim/Nel :    3    4   eps(HOMO/LUMO)   -0.911922   -0.911922
Hueckel system :  4 charge :   0 ndim/Nel :    3    4   eps(HOMO/LUMO)   -0.910012   -0.910012
Hueckel system :  5 charge :   0 ndim/Nel :    4    5   eps(HOMO/LUMO)    1.305315    1.305315
WARNING: probably wrong pi occupation for system 5. Second attempt with Nel=Nel-1!
 at,nb,topo%hyb,Npiel:          26  C             3           2           1
 at,nb,topo%hyb,Npiel:          27  O             1           2           1
 at,nb,topo%hyb,Npiel:          31  N             3           3           2
 at,nb,topo%hyb,Npiel:          32  C             3           2           1

          eigenvalues
 #    :           1          2          3          4
 occ. :        2.000      1.987      0.013      0.000
 eps  :        -4.349     -2.183      1.305      3.389
Hueckel system :  5 charge :   0 ndim/Nel :    4    4   eps(HOMO/LUMO)   -2.182828    1.305315

  atom   neighbors  erfCN metchar sp-hybrid imet pi  qest     coordinates
    1   C      2    1.93   0.00        -2    0    1   0.120  -16.814783  -22.208061   10.247985
    2   O      1    0.98   0.00         2    0    1  -0.120  -15.015764  -21.066667   11.104031
    3   N      3    2.79   0.00        -3    0    1  -0.166  -16.485971  -24.116685    8.465973
    4   C      4    3.50   0.00         3    0    0   0.005  -14.080349  -25.439493    8.418730
    5   C      3    2.80   0.00         2    0    1   0.174  -12.761321  -25.392250    5.963976
    6   O      1    0.98   0.00         2    0    1  -0.352  -13.623036  -26.475063    4.138500
    7   H      1    0.98   0.00         0    0    0   0.153  -17.988303  -25.227844    7.982203
    8   H      1    0.97   0.00         0    0    0   0.093  -12.887932  -24.585337    9.883268
    9   H      1    0.97   0.01         0    0    0   0.093  -14.378926  -27.412367    9.010214
   10   N      3    2.80   0.00        -3    0    1  -0.168  -10.491759  -24.126133    5.933740
   11   C      4    3.50   0.00         3    0    0   0.006   -9.059347  -23.997632    3.667958
   12   C      3    2.79   0.00         2    0    1   0.175   -8.987537  -21.342567    2.624830
   13   O      1    0.98   0.00         2    0    1  -0.352  -10.952853  -20.159598    2.562469
   14   H      1    0.98   0.00         0    0    0   0.154  -10.007990  -22.858127    7.309461
   15   H      1    0.97   0.00         0    0    0   0.092   -7.190408  -24.764861    4.004330
   16   H      1    0.97   0.01         0    0    0   0.092   -9.996651  -25.222175    2.262002
   17   N      3    2.79   0.00        -3    0    1  -0.167   -6.789786  -20.246526    1.725320
   18   C      4    3.49   0.00         3    0    0   0.005   -4.325583  -21.442722    1.477766
   19   C      3    2.80   0.00         2    0    1   0.178   -3.450640  -21.518311   -1.211314
   20   O      1    0.98   0.00         2    0    1  -0.353   -4.559909  -22.835450   -2.719316
   21   H      1    0.98   0.00         0    0    0   0.151   -6.914508  -18.545772    0.837149
   22   H      1    0.97   0.00         0    0    0   0.093   -2.961201  -20.443057    2.666404
   23   H      1    0.97   0.00         0    0    0   0.093   -4.387944  -23.391030    2.180744
   24   N      3    2.79   0.00        -3    0    1  -0.170   -1.400287  -20.061333   -1.884057
   25   C      4    3.49   0.00         3    0    0   0.006   -0.704868  -19.798661   -4.512666
   26   C      3    2.79   0.00         2    0    1   0.195   -1.390838  -17.192728   -5.470757
   27   O      1    0.98   0.00         2    0    1  -0.357   -3.335367  -16.240306   -4.712977
   28   H      1    0.98   0.00         0    0    0   0.147   -0.738883  -18.668604   -0.721875
   29   H      1    0.97   0.00         0    0    0   0.090    1.311470  -20.167157   -4.705418
   30   H      1    0.97   0.00         0    0    0   0.090   -1.744217  -21.214065   -5.584141
   31   N      3    2.79   0.00         3    0    1  -0.226    0.103935  -15.934171   -7.211195
   32   C      3    2.78   0.00         2    0    1  -0.008    2.501997  -16.793996   -8.242985
   33   H      1    0.98   0.00         0    0    0   0.123   -0.529123  -14.282550   -7.965196
   34   H      1    0.97   0.00         0    0    0   0.055    4.040234  -16.160938   -7.065686
   35   H      1    0.97   0.01         0    0    0   0.055    2.519005  -18.885923   -8.254324

molecular fragment  # atoms  topo charge
       1             2            -0.000
       2             7            -0.000
       3             7            -0.000
       4             7             0.000
       5             7             0.000
       6             5            -0.000


          #atoms :   35
          #bonds :   34

 bond atoms        type  in ring    R      R0    piBO    fqq  kbond(tot)  alp
 O  C     2    1      2    0     1.215   0.996   0.799   1.047  -0.252   0.584
 N  C     3    1      2    0     1.393   1.214   0.504   1.047  -0.235   0.524
 C  N     4    3      1    0     1.453   1.326 -99.000   1.033  -0.151   0.496
 C  C     5    4      1    0     1.475   1.333 -99.000   1.013  -0.162   0.475
 O  C     6    5      2    0     1.212   1.031   0.856   1.047  -0.262   0.584
 H  N     7    3      1    0     1.021   0.890 -99.000   1.047  -0.176   0.551
 H  C     8    4      1    0     1.097   0.977 -99.000   1.018  -0.164   0.482
 H  C     9    4      1    0     1.101   0.977 -99.000   1.018  -0.164   0.482
 N  C    10    5      2    0     1.375   1.263   0.503   1.047  -0.234   0.524
 C  N    11   10      1    0     1.420   1.326 -99.000   1.036  -0.151   0.496
 C  C    12   11      1    0     1.510   1.332 -99.000   1.011  -0.162   0.475
 O  C    13   12      2    0     1.214   1.031   0.856   1.047  -0.262   0.584
 H  N    14   10      1    0     1.023   0.890 -99.000   1.047  -0.176   0.551
 H  C    15   11      1    0     1.084   0.977 -99.000   1.016  -0.164   0.482
 H  C    16   11      1    0     1.104   0.977 -99.000   1.016  -0.164   0.482
 N  C    17   12      2    0     1.384   1.263   0.503   1.047  -0.234   0.524
 C  N    18   17      1    0     1.455   1.326 -99.000   1.033  -0.151   0.496
 C  C    19   18      1    0     1.497   1.332 -99.000   1.014  -0.162   0.475
 O  C    20   19      2    0     1.211   1.031   0.856   1.047  -0.262   0.584
 H  N    21   17      1    0     1.017   0.890 -99.000   1.047  -0.176   0.551
 H  C    22   18      1    0     1.094   0.976 -99.000   1.018  -0.164   0.482
 H  C    23   18      1    0     1.097   0.976 -99.000   1.018  -0.164   0.482
 N  C    24   19      2    0     1.378   1.263   0.504   1.047  -0.234   0.524
 C  N    25   24      1    0     1.446   1.326 -99.000   1.034  -0.151   0.496
 C  C    26   25      1    0     1.513   1.332 -99.000   1.011  -0.162   0.475
 O  C    27   26      2    0     1.214   1.018   0.930   1.047  -0.274   0.584
 H  N    28   24      1    0     1.022   0.890 -99.000   1.047  -0.176   0.551
 H  C    29   25      1    0     1.089   0.977 -99.000   1.018  -0.164   0.482
 H  C    30   25      1    0     1.089   0.977 -99.000   1.018  -0.164   0.482
 N  C    31   26      2    0     1.385   1.291   0.346   1.047  -0.203   0.524
 C  N    32   31      2    0     1.454   1.189   0.906   1.006  -0.302   0.524
 H  N    33   31      1    0     1.017   0.890 -99.000   1.047  -0.176   0.551
 H  C    34   32      1    0     1.078   0.950 -99.000   1.029  -0.179   0.490
 H  C    35   32      1    0     1.107   0.949 -99.000   1.029  -0.179   0.490
          #angl  :   55

 angle atoms        phi0    phi      FC  pi rings
    1    3    2   145.000 121.001   0.082 F   0
    3    4    1   115.000 118.066   0.411 F   0
    3    7    1   115.000 119.337   0.335 F   0
    3    7    4   104.000 113.595   0.182 F   0
    4    5    3   109.500 114.937   0.307 F   0
    4    8    3   109.500 107.058   0.253 F   0
    4    8    5   109.500 110.064   0.251 F   0
    4    9    3   109.500 109.033   0.253 F   0
    4    9    5   109.500 109.529   0.251 F   0
    4    9    8   108.600 105.805   0.209 F   0
    5    6    4   120.000 121.053   0.178 F   0
    5   10    4   120.000 115.580   0.243 F   0
    5   10    6   120.000 123.332   0.176 F   0
   10   11    5   115.000 119.950   0.409 F   0
   10   14    5   115.000 122.003   0.333 F   0
   10   14   11   104.000 115.849   0.182 F   0
   11   12   10   109.500 111.507   0.307 F   0
   11   15   10   109.500 109.297   0.253 F   0
   11   15   12   109.500 112.683   0.252 F   0
   11   16   10   109.500 107.517   0.253 F   0
   11   16   12   109.500 108.120   0.252 F   0
   11   16   15   108.600 107.500   0.209 F   0
   12   13   11   120.000 117.907   0.178 F   0
   12   17   11   120.000 122.465   0.243 F   0
   12   17   13   120.000 119.623   0.176 F   0
   17   18   12   115.000 126.982   0.409 F   0
   17   21   12   115.000 118.362   0.333 F   0
   17   21   18   104.000 113.656   0.182 F   0
   18   19   17   109.500 111.981   0.307 F   0
   18   22   17   109.500 109.223   0.253 F   0
   18   22   19   109.500 110.815   0.251 F   0
   18   23   17   109.500 110.575   0.253 F   0
   18   23   19   109.500 107.858   0.251 F   0
   18   23   22   108.600 106.228   0.209 F   0
   19   20   18   120.000 119.456   0.178 F   0
   19   24   18   120.000 118.309   0.242 F   0
   19   24   20   120.000 122.235   0.176 F   0
   24   25   19   115.000 120.192   0.409 F   0
   24   28   19   115.000 121.190   0.333 F   0
   24   28   25   104.000 115.002   0.182 F   0
   25   26   24   109.500 110.421   0.307 F   0
   25   29   24   109.500 108.796   0.253 F   0
   25   29   26   109.500 111.508   0.251 F   0
   25   30   24   109.500 107.844   0.253 F   0
   25   30   26   109.500 109.346   0.251 F   0
   25   30   29   108.600 108.839   0.209 F   0
   26   27   25   120.000 118.096   0.177 F   0
   26   31   25   120.000 121.604   0.241 F   0
   26   31   27   120.000 120.280   0.174 F   0
   31   32   26   113.000 126.699   0.042 F   0
   31   33   26   113.000 119.070   0.211 F   0
   31   33   32   113.000 114.127   0.105 F   0
   32   34   31   120.000 110.152   0.204 F   0
   32   35   31   120.000 108.780   0.204 F   0
   32   35   34   120.000 107.916   0.167 F   0
 torsion atoms        nrot   rings    phi0    phi      FC
    3    1    4    2   2      0     180.000  25.464   0.765
    3    1    7    2   2      0     180.000 170.549   1.135
    4    3    5    1   3      0     180.000 123.775   0.024
    4    3    5    7   3      0     180.000  89.214   0.032
    4    3    8    1   3      0     180.000   1.199   0.034
    4    3    8    7   3      0     180.000 148.210   0.045
    4    3    9    1   3      0     180.000 112.832   0.034
    4    3    9    7   3      0     180.000  34.179   0.045
    5    4    6    3   3      0     180.000  66.832   0.066
    5    4    6    8   3      0     180.000 172.223   0.115
    5    4    6    9   3      0     180.000  56.297   0.115
    5    4   10    3   3      0     180.000 115.222   0.041
    5    4   10    8   3      0     180.000   5.723   0.072
    5    4   10    9   3      0     180.000 121.649   0.072
   10    5   11    4   2      0     180.000 179.253   0.615
   10    5   11    6   2      0     180.000   1.359   0.833
   10    5   14    4   2      0     180.000  18.294   0.912
   10    5   14    6   2      0     180.000 163.812   1.236
   11   10   12    5   3      0     180.000 111.578   0.022
   11   10   12   14   3      0     180.000  51.918   0.032
   11   10   15    5   3      0     180.000 123.173   0.032
   11   10   15   14   3      0     180.000  73.331   0.045
   11   10   16    5   3      0     180.000   6.776   0.032
   11   10   16   14   3      0     180.000 170.271   0.045
   12   11   13   10   3      0     180.000  45.027   0.066
   12   11   13   15   3      0     180.000 168.371   0.115
   12   11   13   16   3      0     180.000  72.965   0.115
   12   11   17   10   3      0     180.000 135.737   0.041
   12   11   17   15   3      0     180.000  12.393   0.072
   12   11   17   16   3      0     180.000 106.272   0.072
   17   12   18   11   2      0     180.000   4.238   0.614
   17   12   18   13   2      0     180.000 174.986   0.832
   17   12   21   11   2      0     180.000 172.021   0.911
   17   12   21   13   2      0     180.000   7.203   1.235
   18   17   19   12   3      0     180.000 118.237   0.022
   18   17   19   21   3      0     180.000  50.034   0.032
   18   17   22   12   3      0     180.000 118.630   0.032
   18   17   22   21   3      0     180.000  73.099   0.045
   18   17   23   12   3      0     180.000   2.078   0.032
   18   17   23   21   3      0     180.000 170.348   0.045
   19   18   20   17   3      0     180.000  67.524   0.066
   19   18   20   22   3      0     180.000 170.247   0.115
   19   18   20   23   3      0     180.000  54.361   0.115
   19   18   24   17   3      0     180.000 112.159   0.041
   19   18   24   22   3      0     180.000  10.070   0.072
   19   18   24   23   3      0     180.000 125.957   0.072
   24   19   25   18   2      0     180.000 171.391   0.620
   24   19   25   20   2      0     180.000   8.282   0.840
   24   19   28   18   2      0     180.000  13.897   0.920
   24   19   28   20   2      0     180.000 165.775   1.247
   25   24   26   19   3      0     180.000 106.649   0.022
   25   24   26   28   3      0     180.000  52.170   0.032
   25   24   29   19   3      0     180.000 130.668   0.032
   25   24   29   28   3      0     180.000  70.513   0.045
   25   24   30   19   3      0     180.000  12.770   0.032
   25   24   30   28   3      0     180.000 171.589   0.045
   26   25   27   24   3      0     180.000  37.252   0.066
   26   25   27   29   3      0     180.000 158.334   0.115
   26   25   27   30   3      0     180.000  81.254   0.115
   26   25   31   24   3      0     180.000 144.381   0.041
   26   25   31   29   3      0     180.000  23.298   0.072
   26   25   31   30   3      0     180.000  97.113   0.072
   31   26   32   25   2      0     180.000   3.334   0.343
   31   26   32   27   2      0     180.000 178.334   0.465
   31   26   33   25   2      0     180.000 172.713   0.489
   31   26   33   27   2      0     180.000   5.619   0.663
   32   31   34   26   2      0     180.000  89.274   1.385
   32   31   34   33   2      0     180.000  94.512   1.974
   32   31   35   26   2      0     180.000  28.819   1.385
   32   31   35   33   2      0     180.000 147.395   1.974
 out-of-plane atoms          phi0    phi      FC
    3    7    1    4          0.000  30.335   0.133
    5    6   10    4          0.000  -1.899  23.920
   10   14    5   11          0.000  15.143   0.125
   12   13   17   11          0.000  -0.655  23.974
   17   21   12   18          0.000   9.732   0.130
   19   20   24   18          0.000   0.288  24.122
   24   28   19   25          0.000  19.321   0.116
   26   27   31   25          0.000  -1.421  28.543
   31   33   26   32          0.000   3.169  -0.052
   32   34   35   31          0.000  55.492   0.552
          #tors  :   80
          #nmol  :   6
          #optfrag :   6

 GFN-FF setup done.

           ------------------------------------------------- 
          |                   G F N - F F                   |
          |          A general generic force-field          |
          |                  Version 1.0.3                  | 
           ------------------------------------------------- 
      * Solvation model:               ALPB
        Solvent                        water
        Parameter file                 internal GFN-FF/ALPB
        Dielectric constant                8.0200E+01
        Reference state                gsolv [1 M gas/solution]
        Free energy shift                  3.6494E-04 Eh       2.2900E-01 kcal/mol
        Temperature                        2.9815E+02 K
        Density                            1.0000E+00 kg/L
        Solvent mass                       1.8000E+01 g/mol
        Interaction kernel             P16
        Born radius scaling (c1)           1.5056E+00
        Born radii integrator          GBOBC
        Born offset                        0.0000E+00 a0       0.0000E+00 AA
        H-bond correction              true
        Ion screening                  false
        Surface tension                    1.0000E-05 Eh       1.5569E+01 dyn/cm
        Grid points                               230 per atom
          Number of HB bonds (bound hydrogen)     345
          Number of HB bonds (unbound hydrogen)   44
          Number of XB bonds                      0

 E+G (total)                   0 d,  0 h,  0 min,  0.001 sec
 distance/D3 list               ...        0 min,  0.000 sec (  0.295%)
 non bonded repulsion           ...        0 min,  0.000 sec (  2.169%)
 dCN                            ...        0 min,  0.000 sec (  3.424%)
 EEQ energy and q               ...        0 min,  0.000 sec (  4.409%)
 D3                             ...        0 min,  0.000 sec (  8.077%)
 EEQ gradient                   ...        0 min,  0.000 sec (  4.355%)
 bonds                          ...        0 min,  0.000 sec (  0.939%)
 bend and torsion               ...        0 min,  0.000 sec (  4.137%)
 bonded ATM                     ...        0 min,  0.000 sec (  1.524%)
 HB/XB (incl list setup)        ...        0 min,  0.000 sec (  8.977%)
 GBSA                           ...        0 min,  0.000 sec ( 63.899%)

         :::::::::::::::::::::::::::::::::::::::::::::::::::::
         ::                     SUMMARY                     ::
         :::::::::::::::::::::::::::::::::::::::::::::::::::::
         :: total energy              -6.224980630284 Eh    ::
         :: total w/o Gsolv           -6.185738036448 Eh    ::
         :: total w/o Gsasa/hb        -6.219811284913 Eh    ::
         :: gradient norm              0.172227735796 Eh/a0 ::
         ::.................................................::
         :: bond energy               -6.278934756647 Eh    ::
         :: angle energy               0.026597161836 Eh    ::
         :: torsion energy             0.021134528034 Eh    ::
         :: repulsion energy           0.385812165543 Eh    ::
         :: electrostat energy        -0.308348646509 Eh    ::
         :: dispersion energy         -0.023135094513 Eh    ::
         :: HB energy                 -0.000619529628 Eh    ::
         :: XB energy                  0.000000000000 Eh    ::
         :: bonded atm energy         -0.008243864564 Eh    ::
         :: external energy            0.000000000000 Eh    ::
         :: -> Gsolv                  -0.039242593836 Eh    ::
         ::    -> Gborn               -0.034073248465 Eh    ::
         ::    -> Gsasa                0.009604906104 Eh    ::
         ::    -> Ghb                 -0.015139190730 Eh    ::
         ::    -> Gshift               0.000364939255 Eh    ::
         :: add. restraining           0.000000000000 Eh    ::
         :: total charge               0.000000000000 e     ::
         ::.................................................::
         :: atomisation energy         0.000000000000 Eh    ::
         :::::::::::::::::::::::::::::::::::::::::::::::::::::

      ----------------------------------------------------------- 
     |                   =====================                   |
     |                        A N C O P T                        |
     |                   =====================                   |
     |               Approximate Normal Coordinate               |
     |                Rational Function Optimizer                |
      ----------------------------------------------------------- 

          ...................................................
          :                      SETUP                      :
          :.................................................:
          :   optimization level         verytight          :
          :   max. optcycles                    10          :
          :   ANC micro-cycles                  10          :
          :   degrees of freedom                99          :
          :.................................................:
          :   RF solver                   davidson          :
          :   write xtbopt.log                true          :
          :   linear?                        false          :
          :   energy convergence         0.1000000E-06 Eh   :
          :   grad. convergence          0.2000000E-03 Eh/α :
          :   maxmium RF displ.          1.0000000          :
          :   Hlow (freq-cutoff)         0.1000000E-01      :
          :   Hmax (freq-cutoff)         5.0000000          :
          :   S6 in model hess.         20.0000000          :
          ...................................................

generating ANC from model Hessian ...
Using GFN-FF Lindh-Hessian
 Shifting diagonal of input Hessian by    0.0000000000000000     
 Lowest  eigenvalues of input Hessian
    0.000000    0.000000    0.000000    0.000000    0.000000    0.000000
    0.019593    0.021172    0.024557    0.030069    0.052228    0.060076
    0.080258    0.081632    0.090126    0.093006    0.117919    0.124880
 Highest eigenvalues
    3.357293    3.541015    3.798688    3.822818    4.210247    4.317659


........................................................................
.............................. CYCLE    1 ..............................
........................................................................
     iter. time                 ...        0 min,  0.001 sec
 * total energy  :    -6.2249806 Eh     change        0.0000000E+00 Eh
   gradient norm :     0.1722277 Eh/α   predicted     0.0000000E+00 (    NaN%)
   displ. norm   :     0.0909713 α      lambda       -0.1140407E-01
   maximum displ.:     0.0316887 α      in ANC's #42, #89, #9, ...

........................................................................
.............................. CYCLE    2 ..............................
........................................................................
     iter. time                 ...        0 min,  0.001 sec
 * total energy  :    -6.2324826 Eh     change       -0.7501963E-02 Eh
   gradient norm :     0.0610387 Eh/α   predicted    -0.5749221E-02 ( -23.36%)
   displ. norm   :     0.0518624 α      lambda       -0.2313331E-02
   maximum displ.:     0.0184748 α      in ANC's #89, #9, #42, ...

........................................................................
.............................. CYCLE    3 ..............................
........................................................................
     iter. time                 ...        0 min,  0.001 sec
 * total energy  :    -6.2337656 Eh     change       -0.1283029E-02 Eh
   gradient norm :     0.0155291 Eh/α   predicted    -0.1159887E-02 (  -9.60%)
   displ. norm   :     0.0197450 α      lambda       -0.1805341E-03
   maximum displ.:     0.0087623 α      in ANC's #16, #34, #35, ...

........................................................................
.............................. CYCLE    4 ..............................
........................................................................
     iter. time                 ...        0 min,  0.001 sec
 * total energy  :    -6.2338976 Eh     change       -0.1320024E-03 Eh
   gradient norm :     0.0085357 Eh/α   predicted    -0.9411056E-04 ( -28.71%)
   displ. norm   :     0.0176201 α      lambda       -0.8224972E-04
   maximum displ.:     0.0085442 α      in ANC's #34, #16, #1, ...

........................................................................
.............................. CYCLE    5 ..............................
........................................................................
     iter. time                 ...        0 min,  0.000 sec
 * total energy  :    -6.2339452 Eh     change       -0.4754878E-04 Eh
   gradient norm :     0.0030184 Eh/α   predicted    -0.4115087E-04 ( -13.46%)
   displ. norm   :     0.0063936 α      lambda       -0.9294836E-05
   maximum displ.:     0.0030231 α      in ANC's #34, #1, #29, ...

........................................................................
.............................. CYCLE    6 ..............................
........................................................................
     iter. time                 ...        0 min,  0.000 sec
 * total energy  :    -6.2339522 Eh     change       -0.7000327E-05 Eh
   gradient norm :     0.0017224 Eh/α   predicted    -0.4886418E-05 ( -30.20%)
   displ. norm   :     0.0103915 α      lambda       -0.5871878E-05
   maximum displ.:     0.0051920 α      in ANC's #1, #34, #29, ...

........................................................................
.............................. CYCLE    7 ..............................
........................................................................
     iter. time                 ...        0 min,  0.000 sec
 * total energy  :    -6.2339560 Eh     change       -0.3808698E-05 Eh
   gradient norm :     0.0015866 Eh/α   predicted    -0.2946121E-05 ( -22.65%)
   displ. norm   :     0.0020814 α      lambda       -0.9956839E-06
   maximum displ.:     0.0010452 α      in ANC's #1, #3, #2, ...

........................................................................
.............................. CYCLE    8 ..............................
........................................................................
     iter. time                 ...        0 min,  0.000 sec
 * total energy  :    -6.2339570 Eh     change       -0.1009003E-05 Eh
   gradient norm :     0.0005309 Eh/α   predicted    -0.5049006E-06 ( -49.96%)
   displ. norm   :     0.0036339 α      lambda       -0.3296448E-06
   maximum displ.:     0.0026003 α      in ANC's #1, #2, #3, ...

........................................................................
.............................. CYCLE    9 ..............................
........................................................................
     iter. time                 ...        0 min,  0.000 sec
 * total energy  :    -6.2339573 Eh     change       -0.3389402E-06 Eh
   gradient norm :     0.0002232 Eh/α   predicted    -0.1783239E-06 ( -47.39%)
   displ. norm   :     0.0027223 α      lambda        0.7111239E-07
   maximum displ.:     0.0019238 α      in ANC's #1, #2, #3, ...

........................................................................
.............................. CYCLE   10 ..............................
........................................................................
     iter. time                 ...        0 min,  0.000 sec
 * total energy  :    -6.2339573 Eh     change        0.4521601E-07 Eh
   gradient norm :     0.0006674 Eh/α   predicted     0.3117512E-07 ( -31.05%)
   displ. norm   :     0.0008795 α      lambda       -0.1786472E-06
   maximum displ.:     0.0004825 α      in ANC's #1, #2, #34, ...

   *** FAILED TO CONVERGE GEOMETRY OPTIMIZATION IN 10 ITERATIONS ***


 ANCopt (total)                0 d,  0 h,  0 min,  0.007 sec
 optimizer setup                ...        0 min,  0.000 sec (  0.851%)
 model hessian                  ...        0 min,  0.000 sec (  3.468%)
 ANC generation                 ...        0 min,  0.001 sec (  9.122%)
 coordinate transformation      ...        0 min,  0.000 sec (  0.442%)
 single point calculation       ...        0 min,  0.005 sec ( 74.962%)
 optimization log               ...        0 min,  0.000 sec (  5.682%)
 hessian update                 ...        0 min,  0.000 sec (  0.649%)
 rational function              ...        0 min,  0.000 sec (  2.663%)

================
 final structure:
================
ATOM      1  C   VAL A   8      -8.891 -11.768   5.417  1.00  0.00           C  
ATOM      2  O   VAL A   8      -7.963 -11.137   5.867  1.00  0.00           O  
ATOM      3  N   GLY A   9      -8.724 -12.753   4.491  1.00  0.00           N  
ATOM      4  CA  GLY A   9      -7.449 -13.464   4.463  1.00  0.00           C  
ATOM      5  C   GLY A   9      -6.751 -13.437   3.158  1.00  0.00           C  
ATOM      6  O   GLY A   9      -7.209 -14.010   2.192  1.00  0.00           O  
ATOM      7  H   GLY A   9      -9.519 -13.343   4.226  1.00  0.00           H  
ATOM      8  HA2 GLY A   9      -6.815 -13.011   5.233  1.00  0.00           H  
ATOM      9  HA3 GLY A   9      -7.608 -14.506   4.768  1.00  0.00           H  
ATOM     10  N   GLY A  10      -5.553 -12.767   3.139  1.00  0.00           N  
ATOM     11  CA  GLY A  10      -4.799 -12.697   1.932  1.00  0.00           C  
ATOM     12  C   GLY A  10      -4.757 -11.295   1.387  1.00  0.00           C  
ATOM     13  O   GLY A  10      -5.796 -10.667   1.357  1.00  0.00           O  
ATOM     14  H   GLY A  10      -5.295 -12.097   3.868  1.00  0.00           H  
ATOM     15  HA2 GLY A  10      -3.805 -13.105   2.119  1.00  0.00           H  
ATOM     16  HA3 GLY A  10      -5.291 -13.348   1.197  1.00  0.00           H  
ATOM     17  N   GLY A  11      -3.595 -10.715   0.909  1.00  0.00           N  
ATOM     18  CA  GLY A  11      -2.287 -11.353   0.783  1.00  0.00           C  
ATOM     19  C   GLY A  11      -1.823 -11.389  -0.640  1.00  0.00           C  
ATOM     20  O   GLY A  11      -2.404 -12.094  -1.436  1.00  0.00           O  
ATOM     21  H   GLY A  11      -3.661  -9.815   0.439  1.00  0.00           H  
ATOM     22  HA2 GLY A  11      -1.570 -10.816   1.411  1.00  0.00           H  
ATOM     23  HA3 GLY A  11      -2.321 -12.377   1.156  1.00  0.00           H  
ATOM     24  N   GLY A  12      -0.741 -10.617  -0.997  1.00  0.00           N  
ATOM     25  CA  GLY A  12      -0.377 -10.470  -2.388  1.00  0.00           C  
ATOM     26  C   GLY A  12      -0.750  -9.098  -2.902  1.00  0.00           C  
ATOM     27  O   GLY A  12      -1.765  -8.592  -2.493  1.00  0.00           O  
ATOM     28  H   GLY A  12      -0.391  -9.881  -0.382  1.00  0.00           H  
ATOM     29  HA2 GLY A  12       0.692 -10.674  -2.492  1.00  0.00           H  
ATOM     30  HA3 GLY A  12      -0.923 -11.229  -2.955  1.00  0.00           H  
ATOM     31  N   GLY A  13       0.075  -8.460  -3.838  1.00  0.00           N  
ATOM     32  CA  GLY A  13       1.299  -8.872  -4.353  1.00  0.00           C  
ATOM     33  H   GLY A  13      -0.263  -7.548  -4.188  1.00  0.00           H  
ATOM     34  HA2 GLY A  13       2.142  -8.559  -3.746  1.00  0.00           H  
ATOM     35  HA3 GLY A  13       1.333  -9.974  -4.369  1.00  0.00           H  
END

 Bond Distances (Angstroems)
 ---------------------------
C1-O2=1.2092         C1-N3=1.3628         O2-C1=1.2092         N3-C1=1.3628         N3-C4=1.4595         N3-H7=1.0251         
C4-N3=1.4595         C4-C5=1.4799         C4-H8=1.0953         C4-H9=1.0976         C5-C4=1.4799         C5-O6=1.2126         
C5-N10=1.3735        O6-C5=1.2126         H7-N3=1.0251         H8-C4=1.0953         H9-C4=1.0976         N10-C5=1.3735        
N10-C11=1.4253       N10-H14=1.0227       C11-N10=1.4253       C11-C12=1.5051       C11-H15=1.0905       C11-H16=1.0975       
C12-C11=1.5051       C12-O13=1.2138       C12-N17=1.3843       O13-C12=1.2138       H14-N10=1.0227       H15-C11=1.0905       
H16-C11=1.0975       N17-C12=1.3843       N17-C18=1.4610       N17-H21=1.0171       C18-N17=1.4610       C18-C19=1.4970       
C18-H22=1.0947       C18-H23=1.0905       C19-C18=1.4970       C19-O20=1.2122       C19-N24=1.3760       O20-C19=1.2122       
H21-N17=1.0171       H22-C18=1.0947       H23-C18=1.0905       N24-C19=1.3760       N24-C25=1.4453       N24-H28=1.0209       
C25-N24=1.4453       C25-C26=1.5118       C25-H29=1.0935       C25-H30=1.0936       C26-C25=1.5118       C26-O27=1.2050       
C26-N31=1.4020       O27-C26=1.2050       H28-N24=1.0209       H29-C25=1.0935       H30-C25=1.0936       N31-C26=1.4020       
N31-C32=1.3896       N31-H33=1.0339       C32-N31=1.3896       C32-H34=1.0852       C32-H35=1.1022       H33-N31=1.0339       
H34-C32=1.0852       H35-C32=1.1022       
 C  H  Rav=1.0941 sigma=0.0044  Rmin=1.0852  Rmax=1.1022    10
 C  C  Rav=1.4985 sigma=0.0119  Rmin=1.4799  Rmax=1.5118     4
 N  H  Rav=1.0240 sigma=0.0056  Rmin=1.0171  Rmax=1.0339     5
 N  C  Rav=1.4079 sigma=0.0351  Rmin=1.3628  Rmax=1.4610    10
 O  C  Rav=1.2106 sigma=0.0032  Rmin=1.2050  Rmax=1.2138     5

 selected bond angles (degree)
 --------------------
N3-C1-O2=122.40                C4-N3-C1=118.18                H7-N3-C1=119.76                H7-N3-C4=113.11                
C5-C4-N3=114.81                H8-C4-N3=106.89                H8-C4-C5=109.85                H9-C4-N3=109.30                
H9-C4-C5=109.35                H9-C4-H8=106.29                O6-C5-C4=121.06                N10-C5-C4=115.61               
N10-C5-O6=123.29               C11-N10-C5=119.77              H14-N10-C5=121.99              H14-N10-C11=116.02             

 selected dihedral angles (degree)
 ---------------------------------
C4-N3-C1-O2= 27.11            H7-N3-C1-O2=172.12            C5-C4-N3-C1=236.13            C5-C4-N3-H7= 88.90            
H8-C4-N3-C1=358.22            H8-C4-N3-H7=210.99            H9-C4-N3-C1=112.87            H9-C4-N3-H7=325.64            
O6-C5-C4-N3=292.72            O6-C5-C4-H8=172.25            O6-C5-C4-H9= 55.97            N10-C5-C4-N3=114.81           
N10-C5-C4-H8=354.33           N10-C5-C4-H9=238.05           C11-N10-C5-C4=179.35          C11-N10-C5-O6=  1.48          
H14-N10-C5-C4=341.77          H14-N10-C5-O6=163.91          
           -------------------------------------------------
          |                Final Singlepoint                |
           -------------------------------------------------
         :::::::::::::::::::::::::::::::::::::::::::::::::::::
         ::                     SUMMARY                     ::
         :::::::::::::::::::::::::::::::::::::::::::::::::::::
         :: total energy              -6.233957484222 Eh    ::
         :: total w/o Gsolv           -6.195019564575 Eh    ::
         :: total w/o Gsasa/hb        -6.229014379863 Eh    ::
         :: gradient norm              0.000279911650 Eh/a0 ::
         ::.................................................::
         :: bond energy               -6.297877869310 Eh    ::
         :: angle energy               0.025942904031 Eh    ::
         :: torsion energy             0.023575345532 Eh    ::
         :: repulsion energy           0.389631604139 Eh    ::
         :: electrostat energy        -0.308794525724 Eh    ::
         :: dispersion energy         -0.023136922095 Eh    ::
         :: HB energy                 -0.000625622740 Eh    ::
         :: XB energy                  0.000000000000 Eh    ::
         :: bonded atm energy         -0.008061236503 Eh    ::
         :: external energy            0.000000000000 Eh    ::
         :: -> Gsolv                  -0.038937919648 Eh    ::
         ::    -> Gborn               -0.033994815289 Eh    ::
         ::    -> Gsasa                0.009651375759 Eh    ::
         ::    -> Ghb                 -0.014959419373 Eh    ::
         ::    -> Gshift               0.000364939255 Eh    ::
         :: add. restraining           0.004326758096 Eh    ::
         :: total charge               0.000000000000 e     ::
         ::.................................................::
         :: atomisation energy         0.000000000000 Eh    ::
         :::::::::::::::::::::::::::::::::::::::::::::::::::::

           -------------------------------------------------
          |                Property Printout                |
           -------------------------------------------------
           -------------------------------------------------
          |                Geometry Summary                 |
           -------------------------------------------------

      molecular mass/u    :      285.2570109
   center of mass at/Å    :       -4.0133674     -11.2800170       0.8005603
  moments of inertia/u·Å² :        0.4526654E+03   0.5813351E+04   0.5994708E+04
rotational constants/cm⁻¹ :        0.3724082E-01   0.2899813E-02   0.2812086E-02

 * 30 selected distances

     #   Z          #   Z                                           value/Å
     1   6  C       3   7  N                                      1.3628240
     3   7  N       4   6  C                                      1.4594863
     4   6  C       5   6  C                                      1.4798999 (max)
     5   6  C       6   8  O                                      1.2125783
     3   7  N       7   1  H                                      1.0251187
     4   6  C       8   1  H                                      1.0952836
     4   6  C       9   1  H                                      1.0976320
     5   6  C      10   7  N                                      1.3734887
    10   7  N      11   6  C                                      1.4253474
    12   6  C      13   8  O                                      1.2138186
    10   7  N      14   1  H                                      1.0227488
    11   6  C      15   1  H                                      1.0905275
    11   6  C      16   1  H                                      1.0974656
    12   6  C      17   7  N                                      1.3843377
    17   7  N      18   6  C                                      1.4609752
    19   6  C      20   8  O                                      1.2121689
    17   7  N      21   1  H                                      1.0170807 (min)
    18   6  C      22   1  H                                      1.0947196
    18   6  C      23   1  H                                      1.0905463
    19   6  C      24   7  N                                      1.3759849
    24   7  N      25   6  C                                      1.4452684
    26   6  C      27   8  O                                      1.2049945
    24   7  N      28   1  H                                      1.0209146
    25   6  C      29   1  H                                      1.0935188
    25   6  C      30   1  H                                      1.0936264
    26   6  C      31   7  N                                      1.4019527
    31   7  N      32   6  C                                      1.3896007
    31   7  N      33   1  H                                      1.0338925
    32   6  C      34   1  H                                      1.0852163
    32   6  C      35   1  H                                      1.1022463

 * 5 distinct bonds (by element types)

   Z      Z             #   av. dist./Å        max./Å        min./Å
   1 H    6 C          10     1.0940782     1.1022463     1.0852163
   6 C    6 C           1     1.4798999     1.4798999     1.4798999
   1 H    7 N           5     1.0239510     1.0338925     1.0170807
   6 C    7 N          10     1.4079266     1.4609752     1.3628240
   6 C    8 O           4     1.2108901     1.2138186     1.2049945


optimized geometry written to: xtbopt.pdb


           -------------------------------------------------
          | TOTAL ENERGY               -6.233957484222 Eh   |
          | GRADIENT NORM               0.000279911650 Eh/α |
           -------------------------------------------------
########################################################################
[WARNING] Runtime exception occurred
-1- gfnff_setup: Could not read topology file.
########################################################################

------------------------------------------------------------------------
 unit  open   action     filename
   10 false : read       xtb_settings.inp
   10 false : read       substructure_21.pdb
   10 false : read       xtb_settings.inp
   10 false : written    gfnff_topo
   10 false : written    gfnff_adjacency
   10 false : written    gfnff_charges
   10 false : deleted    .xtboptok
   10 false : replaced   xtbopt.log
   11 false : created    .xtboptok
   11 false : replaced   gfnff_charges
   10 false : replaced   xtbopt.pdb

------------------------------------------------------------------------
 * finished run on 2025/05/27 at 09:37:40.772     
------------------------------------------------------------------------
 total:
 * wall-time:     0 d,  0 h,  0 min,  0.011 sec
 *  cpu-time:     0 d,  0 h,  0 min,  0.011 sec
 * ratio c/w:     1.000 speedup
 SCF:
 * wall-time:     0 d,  0 h,  0 min,  0.001 sec
 *  cpu-time:     0 d,  0 h,  0 min,  0.001 sec
 * ratio c/w:     0.999 speedup
 ANC optimizer:
 * wall-time:     0 d,  0 h,  0 min,  0.008 sec
 *  cpu-time:     0 d,  0 h,  0 min,  0.008 sec
 * ratio c/w:     1.000 speedup

