      -----------------------------------------------------------      
     |                   =====================                   |     
     |                           x T B                           |     
     |                   =====================                   |     
     |                         S. Grimme                         |     
     |          Mulliken Center for Theoretical Chemistry        |     
     |                    University of Bonn                     |     
      -----------------------------------------------------------      

   * xtb version 6.6.1 (8d0f1dd) compiled by 'conda@1efc2f54142f' on 2023-08-01

   xtb is free software: you can redistribute it and/or modify it under
   the terms of the GNU Lesser General Public License as published by
   the Free Software Foundation, either version 3 of the License, or
   (at your option) any later version.
   
   xtb is distributed in the hope that it will be useful,
   but WITHOUT ANY WARRANTY; without even the implied warranty of
   MERCHANTABILITY or FITNESS FOR A PARTICULAR PURPOSE.  See the
   GNU Lesser General Public License for more details.
   
   Cite this work as:
   * C. Bannwarth, E. Caldeweyher, S. Ehlert, A. Hansen, P. Pracht,
     J. Seibert, S. Spicher, S. Grimme, WIREs Comput. Mol. Sci., 2020, 11,
     e01493. DOI: 10.1002/wcms.1493
   
   for GFN2-xTB:
   * C. Bannwarth, S. Ehlert and S. Grimme., J. Chem. Theory Comput., 2019,
     15, 1652-1671. DOI: 10.1021/acs.jctc.8b01176
   for GFN1-xTB:
   * S. Grimme, C. Bannwarth, P. Shushkov, J. Chem. Theory Comput., 2017,
     13, 1989-2009. DOI: 10.1021/acs.jctc.7b00118
   for GFN0-xTB:
   * P. Pracht, E. Caldeweyher, S. Ehlert, S. Grimme, ChemRxiv, 2019, preprint.
     DOI: 10.26434/chemrxiv.8326202.v1
   for GFN-FF:
   * S. Spicher and S. Grimme, Angew. Chem. Int. Ed., 2020, 59, 15665-15673.
     DOI: 10.1002/anie.202004239
   
   for ALPB and GBSA implicit solvation:
   * S. Ehlert, M. Stahn, S. Spicher, S. Grimme, J. Chem. Theory Comput.,
     2021, 17, 4250-4261. DOI: 10.1021/acs.jctc.1c00471
   
   for DFT-D4:
   * E. Caldeweyher, C. Bannwarth and S. Grimme, J. Chem. Phys., 2017,
     147, 034112. DOI: 10.1063/1.4993215
   * E. Caldeweyher, S. Ehlert, A. Hansen, H. Neugebauer, S. Spicher,
     C. Bannwarth and S. Grimme, J. Chem. Phys., 2019, 150, 154122.
     DOI: 10.1063/1.5090222
   * E. Caldeweyher, J.-M. Mewes, S. Ehlert and S. Grimme, Phys. Chem. Chem. Phys.
     2020, 22, 8499-8512. DOI: 10.1039/D0CP00502A
   
   for sTDA-xTB:
   * S. Grimme and C. Bannwarth, J. Chem. Phys., 2016, 145, 054103.
     DOI: 10.1063/1.4959605
   
   in the mass-spec context:
   * V. Asgeirsson, C. Bauer and S. Grimme, Chem. Sci., 2017, 8, 4879.
     DOI: 10.1039/c7sc00601b
   * J. Koopman and S. Grimme, ACS Omega 2019, 4, 12, 15120-15133.
     DOI: 10.1021/acsomega.9b02011
   
   for metadynamics refer to:
   * S. Grimme, J. Chem. Theory Comput., 2019, 155, 2847-2862
     DOI: 10.1021/acs.jctc.9b00143
   
   for SPH calculations refer to:
   * S. Spicher and S. Grimme, J. Chem. Theory Comput., 2021, 17, 1701-1714
     DOI: 10.1021/acs.jctc.0c01306
   
   with help from (in alphabetical order)
   P. Atkinson, C. Bannwarth, F. Bohle, G. Brandenburg, E. Caldeweyher
   M. Checinski, S. Dohm, S. Ehlert, S. Ehrlich, I. Gerasimov, C. Hölzer
   A. Katbashev, J. Koopman, C. Lavigne, S. Lehtola, F. März, M. Müller,
   F. Musil, H. Neugebauer, J. Pisarek, C. Plett, P. Pracht, F. Pultar,
   J. Seibert, P. Shushkov, S. Spicher, M. Stahn, M. Steiner, T. Strunk,
   J. Stückrath, T. Rose, and J. Unsleber
   
 * started run on 2025/05/27 at 09:37:40.276     

           -------------------------------------------------
          |                Calculation Setup                |
           -------------------------------------------------

          program call               : xtb substructure_20.pdb --gfnff --input xtb_settings.inp --opt vtight --alpb water --verbose
          coordinate file            : substructure_20.pdb
          xtbhome directory          : /home/dargen3
          path for xtb               : /home/dargen3
          xcontrol input file        : xtb_settings.inp
          omp threads                :                     1

$$$$$$$$$$$$$$$$$$$$$$$$$$$$$$$$$$$$$$$$$$$$$$$$$$$$$$$$$$$$$$$$$$$$$$$$
 CONSTRAINTS & SCANS: DEBUG SECTION
$$$$$$$$$$$$$$$$$$$$$$$$$$$$$$$$$$$$$$$$$$$$$$$$$$$$$$$$$$$$$$$$$$$$$$$$
   ID    Z sym.   atoms
    1    6  C     1, 4, 5, 11, 12, 18, 19, 25, 26, 32
    2    8  O     2, 6, 13, 20, 27
    3    7  N     3, 10, 17, 24, 31
    4    1  H     7-9, 14-16, 21-23, 28-30, 33-35
> constrain
-> atoms: 1, 2, 3, 4, 5, 6, 7, 8, 9, 10, 11, 12, 13, 14, 15, 16, 18, 24, 25, 26, 27, 28, 29, 30, 31, 32, 33, 34, 35
--> 1: 1
--> 2: 2
--> 3: 3
--> 4: 4
--> 5: 5
--> 6: 6
--> 7: 7
--> 8: 8
--> 9: 9
--> 10: 10
--> 11: 11
--> 12: 12
--> 13: 13
--> 14: 14
--> 15: 15
--> 16: 16
--> 17: 18
--> 18: 24
--> 19: 25
--> 20: 26
--> 21: 27
--> 22: 28
--> 23: 29
--> 24: 30
--> 25: 31
--> 26: 32
--> 27: 33
--> 28: 34
--> 29: 35
-> force constant=1.0
$$$$$$$$$$$$$$$$$$$$$$$$$$$$$$$$$$$$$$$$$$$$$$$$$$$$$$$$$$$$$$$$$$$$$$$$
           -------------------------------------------------
          |                   Constraints                   |
           -------------------------------------------------

 * 29 constrained atom positions
   positions refering to input geometry

     #   Z                                   position/Å      displ./Å
     1   6 C     -8.9010008   -11.7510011     5.4130005     0.0000000
     2   8 O     -7.9490007   -11.1330010     5.8460005     0.0000000
     3   7 N     -8.7280008   -12.7680012     4.4850004     0.0000000
     4   6 C     -7.4510007   -13.4620012     4.4550004     0.0000000
     5   6 C     -6.7560006   -13.4280012     3.1550003     0.0000000
     6   8 O     -7.2260007   -13.9770013     2.1810002     0.0000000
     7   1 H     -9.5220009   -13.3620012     4.2380004     0.0000000
     8   1 H     -6.8200006   -13.0090012     5.2310005     0.0000000
     9   1 H     -7.6020007   -14.5080013     4.7660004     0.0000000
    10   7 N     -5.5560005   -12.7650012     3.1380003     0.0000000
    11   6 C     -4.7940004   -12.6990012     1.9410002     0.0000000
    12   6 C     -4.7560004   -11.2940010     1.3890001     0.0000000
    13   8 O     -5.7950005   -10.6670010     1.3540001     0.0000000
    14   1 H     -5.2960005   -12.0980011     3.8680004     0.0000000
    15   1 H     -3.8060004   -13.1050012     2.1210002     0.0000000
    16   1 H     -5.2900005   -13.3470012     1.1960001     0.0000000
    18   6 C     -2.2890002   -11.3470011     0.7820001     0.0000000
    24   7 N     -0.7400001   -10.6190010    -0.9970001     0.0000000
    25   6 C     -0.3730000   -10.4770010    -2.3880002     0.0000000
    26   6 C     -0.7330001    -9.0950008    -2.8910003     0.0000000
    27   8 O     -1.7570002    -8.5880008    -2.4850002     0.0000000
    28   1 H     -0.3820000    -9.8890009    -0.3790000     0.0000000
    29   1 H      0.6930001   -10.6750010    -2.4930002     0.0000000
    30   1 H     -0.9270001   -11.2220010    -2.9570003     0.0000000
    31   7 N      0.0570000    -8.4300008    -3.8100004     0.0000000
    32   6 C      1.3240001    -8.8870008    -4.3620004     0.0000000
    33   1 H     -0.2740000    -7.5530007    -4.2040004     0.0000000
    34   1 H      2.1400002    -8.5570008    -3.7410003     0.0000000
    35   1 H      1.3290001    -9.9940009    -4.3710004     0.0000000

     applying 406 atom pairwise harmonic potentials
       applied force constant per pair:     0.0357143
     effective force constant per atom:     1.0000000
         constraining energy/grad norm:     0.0000000     0.0000000

     total constraint energy/grad norm:     0.0000000     0.0000000

          charge from pdb residues: 0

          entering GFN-FF setup routine... 35

          ==================== Thresholds ====================
          CN  :   150.00000
          rep :   500.00000
          disp:  2500.00000
          HB1 :   250.00000
          HB2 :   450.00000

          Pauling EN used:
          Z : 1  EN :  2.20
          Z : 6  EN :  2.55
          Z : 7  EN :  3.04
          Z : 8  EN :  3.44
          electric field strengths (au): 0.000

           ------------------------------------------------- 
          |           Force Field Initialization            |
           ------------------------------------------------- 

          distances ...
          ----------------------------------------
          generating topology and atomic info file ...
          pair mat ...
          computing topology distances matrix with Floyd-Warshall algo ...
          making topology EEQ charges ...
          #fragments for EEQ constrain from pdb file: 6
          ----------------------------------------
          generating topology and atomic info file ...
          pair mat ...
          computing topology distances matrix with Floyd-Warshall algo ...
          making topology EEQ charges ...
          #fragments for EEQ constrain from pdb file: 6
          rings ...
          # BATM   270
          # H in HB   15
          doing iterative Hueckel for 5 subsystem(s) ...
          iterative Hueckel run to get P ...
Hueckel system :  1 charge :   0 ndim/Nel :    3    3   eps(HOMO/LUMO)   -0.953512   -0.953512
Hueckel system :  2 charge :   0 ndim/Nel :    3    4   eps(HOMO/LUMO)   -0.911362   -0.911362
Hueckel system :  3 charge :   0 ndim/Nel :    3    4   eps(HOMO/LUMO)   -0.911922   -0.911922
Hueckel system :  4 charge :   0 ndim/Nel :    3    4   eps(HOMO/LUMO)   -0.910012   -0.910012
Hueckel system :  5 charge :   0 ndim/Nel :    4    5   eps(HOMO/LUMO)    1.305315    1.305315
WARNING: probably wrong pi occupation for system 5. Second attempt with Nel=Nel-1!
 at,nb,topo%hyb,Npiel:          26  C             3           2           1
 at,nb,topo%hyb,Npiel:          27  O             1           2           1
 at,nb,topo%hyb,Npiel:          31  N             3           3           2
 at,nb,topo%hyb,Npiel:          32  C             3           2           1

          eigenvalues
 #    :           1          2          3          4
 occ. :        2.000      1.987      0.013      0.000
 eps  :        -4.349     -2.183      1.305      3.389
Hueckel system :  5 charge :   0 ndim/Nel :    4    4   eps(HOMO/LUMO)   -2.182828    1.305315

  atom   neighbors  erfCN metchar sp-hybrid imet pi  qest     coordinates
    1   C      2    1.93   0.00        -2    0    1   0.120  -16.820452  -22.206172   10.229088
    2   O      1    0.98   0.00         2    0    1  -0.120  -15.021433  -21.038321   11.047339
    3   N      3    2.79   0.00        -3    0    1  -0.166  -16.493530  -24.128023    8.475422
    4   C      4    3.50   0.00         3    0    0   0.005  -14.080349  -25.439493    8.418730
    5   C      3    2.80   0.00         2    0    1   0.174  -12.766990  -25.375242    5.962086
    6   O      1    0.98   0.00         2    0    1  -0.352  -13.655161  -26.412702    4.121493
    7   H      1    0.98   0.00         0    0    0   0.153  -17.993972  -25.250520    8.008659
    8   H      1    0.97   0.01         0    0    0   0.093  -12.887932  -24.583447    9.885157
    9   H      1    0.97   0.01         0    0    0   0.093  -14.365698  -27.416147    9.006435
   10   N      3    2.80   0.00        -3    0    1  -0.168  -10.499318  -24.122354    5.929961
   11   C      4    3.50   0.00         3    0    0   0.006   -9.059347  -23.997632    3.667958
   12   C      3    2.79   0.00         2    0    1   0.175   -8.987537  -21.342567    2.624830
   13   O      1    0.98   0.00         2    0    1  -0.352  -10.950963  -20.157709    2.558689
   14   H      1    0.98   0.00         0    0    0   0.154  -10.007990  -22.861907    7.309461
   15   H      1    0.97   0.00         0    0    0   0.092   -7.192298  -24.764861    4.008109
   16   H      1    0.97   0.01         0    0    0   0.092   -9.996651  -25.222175    2.260112
   17   N      3    2.79   0.00        -3    0    1  -0.167   -6.784117  -20.237077    1.747997
   18   C      4    3.49   0.00         3    0    0   0.005   -4.325583  -21.442722    1.477766
   19   C      3    2.80   0.00         2    0    1   0.178   -3.463868  -21.505083   -1.215094
   20   O      1    0.98   0.00         2    0    1  -0.353   -4.595814  -22.799546   -2.728765
   21   H      1    0.98   0.00         0    0    0   0.151   -6.905059  -18.528765    0.876833
   22   H      1    0.97   0.00         0    0    0   0.093   -2.951752  -20.454396    2.664514
   23   H      1    0.97   0.00         0    0    0   0.093   -4.389834  -23.394809    2.171295
   24   N      3    2.79   0.00        -3    0    1  -0.170   -1.398397  -20.067002   -1.884057
   25   C      4    3.49   0.00         3    0    0   0.006   -0.704868  -19.798661   -4.512666
   26   C      3    2.79   0.00         2    0    1   0.195   -1.385169  -17.187059   -5.463198
   27   O      1    0.98   0.00         2    0    1  -0.357   -3.320249  -16.228968   -4.695969
   28   H      1    0.98   0.00         0    0    0   0.147   -0.721875  -18.687502   -0.716206
   29   H      1    0.97   0.00         0    0    0   0.090    1.309580  -20.172826   -4.711087
   30   H      1    0.97   0.00         0    0    0   0.090   -1.751776  -21.206507   -5.587920
   31   N      3    2.79   0.00         3    0    1  -0.226    0.107714  -15.930391   -7.199857
   32   C      3    2.78   0.00         2    0    1  -0.008    2.501997  -16.793996   -8.242985
   33   H      1    0.98   0.00         0    0    0   0.123   -0.517785  -14.273101   -7.944409
   34   H      1    0.97   0.00         0    0    0   0.055    4.044014  -16.170386   -7.069465
   35   H      1    0.97   0.01         0    0    0   0.055    2.511446  -18.885923   -8.259993

molecular fragment  # atoms  topo charge
       1             2            -0.000
       2             7            -0.000
       3             7            -0.000
       4             7             0.000
       5             7             0.000
       6             5            -0.000


          #atoms :   35
          #bonds :   34

 bond atoms        type  in ring    R      R0    piBO    fqq  kbond(tot)  alp
 O  C     2    1      2    0     1.215   0.996   0.799   1.047  -0.252   0.584
 N  C     3    1      2    0     1.388   1.215   0.504   1.047  -0.235   0.524
 C  N     4    3      1    0     1.454   1.326 -99.000   1.033  -0.151   0.496
 C  C     5    4      1    0     1.474   1.333 -99.000   1.013  -0.162   0.475
 O  C     6    5      2    0     1.213   1.031   0.856   1.047  -0.262   0.584
 H  N     7    3      1    0     1.022   0.890 -99.000   1.047  -0.176   0.551
 H  C     8    4      1    0     1.098   0.977 -99.000   1.018  -0.164   0.482
 H  C     9    4      1    0     1.102   0.977 -99.000   1.018  -0.164   0.482
 N  C    10    5      2    0     1.371   1.263   0.503   1.047  -0.234   0.524
 C  N    11   10      1    0     1.420   1.326 -99.000   1.036  -0.151   0.496
 C  C    12   11      1    0     1.510   1.332 -99.000   1.011  -0.162   0.475
 O  C    13   12      2    0     1.214   1.031   0.856   1.047  -0.262   0.584
 H  N    14   10      1    0     1.022   0.890 -99.000   1.047  -0.176   0.551
 H  C    15   11      1    0     1.083   0.977 -99.000   1.016  -0.164   0.482
 H  C    16   11      1    0     1.105   0.977 -99.000   1.016  -0.164   0.482
 N  C    17   12      2    0     1.385   1.263   0.503   1.047  -0.234   0.524
 C  N    18   17      1    0     1.456   1.326 -99.000   1.033  -0.151   0.496
 C  C    19   18      1    0     1.497   1.332 -99.000   1.014  -0.162   0.475
 O  C    20   19      2    0     1.212   1.031   0.856   1.047  -0.262   0.584
 H  N    21   17      1    0     1.017   0.890 -99.000   1.047  -0.176   0.551
 H  C    22   18      1    0     1.094   0.976 -99.000   1.018  -0.164   0.482
 H  C    23   18      1    0     1.097   0.976 -99.000   1.018  -0.164   0.482
 N  C    24   19      2    0     1.378   1.263   0.504   1.047  -0.234   0.524
 C  N    25   24      1    0     1.446   1.326 -99.000   1.034  -0.151   0.496
 C  C    26   25      1    0     1.514   1.332 -99.000   1.011  -0.162   0.475
 O  C    27   26      2    0     1.213   1.018   0.930   1.047  -0.274   0.584
 H  N    28   24      1    0     1.021   0.890 -99.000   1.047  -0.176   0.551
 H  C    29   25      1    0     1.089   0.977 -99.000   1.018  -0.164   0.482
 H  C    30   25      1    0     1.089   0.977 -99.000   1.018  -0.164   0.482
 N  C    31   26      2    0     1.382   1.291   0.346   1.047  -0.203   0.524
 C  N    32   31      2    0     1.456   1.189   0.906   1.006  -0.302   0.524
 H  N    33   31      1    0     1.017   0.890 -99.000   1.047  -0.176   0.551
 H  C    34   32      1    0     1.077   0.950 -99.000   1.029  -0.179   0.490
 H  C    35   32      1    0     1.107   0.949 -99.000   1.029  -0.179   0.490
          #angl  :   55

 angle atoms        phi0    phi      FC  pi rings
    1    3    2   145.000 120.900   0.082 F   0
    3    4    1   115.000 118.244   0.411 F   0
    3    7    1   115.000 119.394   0.335 F   0
    3    7    4   104.000 113.581   0.182 F   0
    4    5    3   109.500 114.913   0.307 F   0
    4    8    3   109.500 107.055   0.253 F   0
    4    8    5   109.500 110.043   0.251 F   0
    4    9    3   109.500 109.090   0.253 F   0
    4    9    5   109.500 109.596   0.251 F   0
    4    9    8   108.600 105.723   0.209 F   0
    5    6    4   120.000 120.993   0.178 F   0
    5   10    4   120.000 115.761   0.243 F   0
    5   10    6   120.000 123.237   0.176 F   0
   10   11    5   115.000 120.160   0.409 F   0
   10   14    5   115.000 121.949   0.333 F   0
   10   14   11   104.000 115.780   0.182 F   0
   11   12   10   109.500 111.394   0.307 F   0
   11   15   10   109.500 109.380   0.253 F   0
   11   15   12   109.500 112.739   0.252 F   0
   11   16   10   109.500 107.464   0.253 F   0
   11   16   12   109.500 108.088   0.252 F   0
   11   16   15   108.600 107.557   0.209 F   0
   12   13   11   120.000 118.005   0.178 F   0
   12   17   11   120.000 122.467   0.243 F   0
   12   17   13   120.000 119.528   0.176 F   0
   17   18   12   115.000 126.887   0.409 F   0
   17   21   12   115.000 118.332   0.333 F   0
   17   21   18   104.000 113.658   0.182 F   0
   18   19   17   109.500 112.051   0.307 F   0
   18   22   17   109.500 109.146   0.253 F   0
   18   22   19   109.500 110.776   0.251 F   0
   18   23   17   109.500 110.617   0.253 F   0
   18   23   19   109.500 107.896   0.251 F   0
   18   23   22   108.600 106.190   0.209 F   0
   19   20   18   120.000 119.410   0.178 F   0
   19   24   18   120.000 118.300   0.242 F   0
   19   24   20   120.000 122.290   0.176 F   0
   24   25   19   115.000 120.184   0.409 F   0
   24   28   19   115.000 121.152   0.333 F   0
   24   28   25   104.000 115.029   0.182 F   0
   25   26   24   109.500 110.424   0.307 F   0
   25   29   24   109.500 108.865   0.253 F   0
   25   29   26   109.500 111.504   0.251 F   0
   25   30   24   109.500 107.845   0.253 F   0
   25   30   26   109.500 109.264   0.251 F   0
   25   30   29   108.600 108.854   0.209 F   0
   26   27   25   120.000 118.110   0.177 F   0
   26   31   25   120.000 121.605   0.241 F   0
   26   31   27   120.000 120.268   0.174 F   0
   31   32   26   113.000 126.763   0.042 F   0
   31   33   26   113.000 119.110   0.211 F   0
   31   33   32   113.000 114.028   0.105 F   0
   32   34   31   120.000 110.155   0.204 F   0
   32   35   31   120.000 108.721   0.204 F   0
   32   35   34   120.000 107.914   0.167 F   0
 torsion atoms        nrot   rings    phi0    phi      FC
    3    1    4    2   2      0     180.000  25.687   0.765
    3    1    7    2   2      0     180.000 171.155   1.135
    4    3    5    1   3      0     180.000 122.745   0.024
    4    3    5    7   3      0     180.000  89.863   0.032
    4    3    8    1   3      0     180.000   0.214   0.034
    4    3    8    7   3      0     180.000 147.607   0.045
    4    3    9    1   3      0     180.000 113.747   0.034
    4    3    9    7   3      0     180.000  33.645   0.045
    5    4    6    3   3      0     180.000  65.318   0.066
    5    4    6    8   3      0     180.000 173.774   0.115
    5    4    6    9   3      0     180.000  57.920   0.115
    5    4   10    3   3      0     180.000 115.774   0.041
    5    4   10    8   3      0     180.000   5.134   0.072
    5    4   10    9   3      0     180.000 120.988   0.072
   10    5   11    4   2      0     180.000 178.682   0.615
   10    5   11    6   2      0     180.000   0.199   0.833
   10    5   14    4   2      0     180.000  18.534   0.912
   10    5   14    6   2      0     180.000 162.585   1.236
   11   10   12    5   3      0     180.000 111.360   0.022
   11   10   12   14   3      0     180.000  52.445   0.032
   11   10   15    5   3      0     180.000 123.339   0.032
   11   10   15   14   3      0     180.000  72.856   0.045
   11   10   16    5   3      0     180.000   6.858   0.032
   11   10   16   14   3      0     180.000 170.663   0.045
   12   11   13   10   3      0     180.000  44.923   0.066
   12   11   13   15   3      0     180.000 168.332   0.115
   12   11   13   16   3      0     180.000  72.919   0.115
   12   11   17   10   3      0     180.000 135.256   0.041
   12   11   17   15   3      0     180.000  11.847   0.072
   12   11   17   16   3      0     180.000 106.902   0.072
   17   12   18   11   2      0     180.000   5.656   0.614
   17   12   18   13   2      0     180.000 174.163   0.832
   17   12   21   11   2      0     180.000 172.717   0.911
   17   12   21   13   2      0     180.000   7.102   1.235
   18   17   19   12   3      0     180.000 117.389   0.022
   18   17   19   21   3      0     180.000  50.185   0.032
   18   17   22   12   3      0     180.000 119.535   0.032
   18   17   22   21   3      0     180.000  72.890   0.045
   18   17   23   12   3      0     180.000   3.050   0.032
   18   17   23   21   3      0     180.000 170.625   0.045
   19   18   20   17   3      0     180.000  67.163   0.066
   19   18   20   22   3      0     180.000 170.687   0.115
   19   18   20   23   3      0     180.000  54.845   0.115
   19   18   24   17   3      0     180.000 112.626   0.041
   19   18   24   22   3      0     180.000   9.525   0.072
   19   18   24   23   3      0     180.000 125.366   0.072
   24   19   25   18   2      0     180.000 171.667   0.620
   24   19   25   20   2      0     180.000   8.115   0.840
   24   19   28   18   2      0     180.000  14.226   0.920
   24   19   28   20   2      0     180.000 165.556   1.247
   25   24   26   19   3      0     180.000 106.152   0.022
   25   24   26   28   3      0     180.000  52.605   0.032
   25   24   29   19   3      0     180.000 131.125   0.032
   25   24   29   28   3      0     180.000  70.119   0.045
   25   24   30   19   3      0     180.000  13.171   0.032
   25   24   30   28   3      0     180.000 171.927   0.045
   26   25   27   24   3      0     180.000  37.028   0.066
   26   25   27   29   3      0     180.000 158.196   0.115
   26   25   27   30   3      0     180.000  81.431   0.115
   26   25   31   24   3      0     180.000 144.425   0.041
   26   25   31   29   3      0     180.000  23.257   0.072
   26   25   31   30   3      0     180.000  97.116   0.072
   31   26   32   25   2      0     180.000   3.247   0.343
   31   26   32   27   2      0     180.000 178.237   0.465
   31   26   33   25   2      0     180.000 172.908   0.489
   31   26   33   27   2      0     180.000   5.608   0.663
   32   31   34   26   2      0     180.000  89.300   1.385
   32   31   34   33   2      0     180.000  94.378   1.974
   32   31   35   26   2      0     180.000  28.757   1.385
   32   31   35   33   2      0     180.000 147.566   1.974
 out-of-plane atoms          phi0    phi      FC
    3    7    1    4          0.000  29.958   0.133
    5    6   10    4          0.000  -1.008  23.920
   10   14    5   11          0.000  14.828   0.125
   12   13   17   11          0.000  -0.153  23.974
   17   21   12   18          0.000  10.316   0.130
   19   20   24   18          0.000   0.192  24.122
   24   28   19   25          0.000  19.367   0.116
   26   27   31   25          0.000  -1.264  28.543
   31   33   26   32          0.000   3.079  -0.052
   32   34   35   31          0.000  55.547   0.552
          #tors  :   80
          #nmol  :   6
          #optfrag :   6

 GFN-FF setup done.

           ------------------------------------------------- 
          |                   G F N - F F                   |
          |          A general generic force-field          |
          |                  Version 1.0.3                  | 
           ------------------------------------------------- 
      * Solvation model:               ALPB
        Solvent                        water
        Parameter file                 internal GFN-FF/ALPB
        Dielectric constant                8.0200E+01
        Reference state                gsolv [1 M gas/solution]
        Free energy shift                  3.6494E-04 Eh       2.2900E-01 kcal/mol
        Temperature                        2.9815E+02 K
        Density                            1.0000E+00 kg/L
        Solvent mass                       1.8000E+01 g/mol
        Interaction kernel             P16
        Born radius scaling (c1)           1.5056E+00
        Born radii integrator          GBOBC
        Born offset                        0.0000E+00 a0       0.0000E+00 AA
        H-bond correction              true
        Ion screening                  false
        Surface tension                    1.0000E-05 Eh       1.5569E+01 dyn/cm
        Grid points                               230 per atom
          Number of HB bonds (bound hydrogen)     345
          Number of HB bonds (unbound hydrogen)   44
          Number of XB bonds                      0

 E+G (total)                   0 d,  0 h,  0 min,  0.001 sec
 distance/D3 list               ...        0 min,  0.000 sec (  0.438%)
 non bonded repulsion           ...        0 min,  0.000 sec (  1.762%)
 dCN                            ...        0 min,  0.000 sec (  3.105%)
 EEQ energy and q               ...        0 min,  0.000 sec (  3.319%)
 D3                             ...        0 min,  0.000 sec (  6.723%)
 EEQ gradient                   ...        0 min,  0.000 sec (  3.504%)
 bonds                          ...        0 min,  0.000 sec (  0.794%)
 bend and torsion               ...        0 min,  0.000 sec (  3.168%)
 bonded ATM                     ...        0 min,  0.000 sec (  1.210%)
 HB/XB (incl list setup)        ...        0 min,  0.000 sec (  8.890%)
 GBSA                           ...        0 min,  0.001 sec ( 68.671%)

         :::::::::::::::::::::::::::::::::::::::::::::::::::::
         ::                     SUMMARY                     ::
         :::::::::::::::::::::::::::::::::::::::::::::::::::::
         :: total energy              -6.224897210796 Eh    ::
         :: total w/o Gsolv           -6.185410055644 Eh    ::
         :: total w/o Gsasa/hb        -6.219704441151 Eh    ::
         :: gradient norm              0.172729568615 Eh/a0 ::
         ::.................................................::
         :: bond energy               -6.279948830329 Eh    ::
         :: angle energy               0.026652650452 Eh    ::
         :: torsion energy             0.021199931442 Eh    ::
         :: repulsion energy           0.386778397437 Eh    ::
         :: electrostat energy        -0.308035512860 Eh    ::
         :: dispersion energy         -0.023149906038 Eh    ::
         :: HB energy                 -0.000594144585 Eh    ::
         :: XB energy                  0.000000000000 Eh    ::
         :: bonded atm energy         -0.008312641163 Eh    ::
         :: external energy            0.000000000000 Eh    ::
         :: -> Gsolv                  -0.039487155152 Eh    ::
         ::    -> Gborn               -0.034294385508 Eh    ::
         ::    -> Gsasa                0.009588288851 Eh    ::
         ::    -> Ghb                 -0.015145997751 Eh    ::
         ::    -> Gshift               0.000364939255 Eh    ::
         :: add. restraining           0.000000000000 Eh    ::
         :: total charge              -0.000000000000 e     ::
         ::.................................................::
         :: atomisation energy         0.000000000000 Eh    ::
         :::::::::::::::::::::::::::::::::::::::::::::::::::::

      ----------------------------------------------------------- 
     |                   =====================                   |
     |                        A N C O P T                        |
     |                   =====================                   |
     |               Approximate Normal Coordinate               |
     |                Rational Function Optimizer                |
      ----------------------------------------------------------- 

          ...................................................
          :                      SETUP                      :
          :.................................................:
          :   optimization level         verytight          :
          :   max. optcycles                    10          :
          :   ANC micro-cycles                  10          :
          :   degrees of freedom                99          :
          :.................................................:
          :   RF solver                   davidson          :
          :   write xtbopt.log                true          :
          :   linear?                        false          :
          :   energy convergence         0.1000000E-06 Eh   :
          :   grad. convergence          0.2000000E-03 Eh/α :
          :   maxmium RF displ.          1.0000000          :
          :   Hlow (freq-cutoff)         0.1000000E-01      :
          :   Hmax (freq-cutoff)         5.0000000          :
          :   S6 in model hess.         20.0000000          :
          ...................................................

generating ANC from model Hessian ...
Using GFN-FF Lindh-Hessian
 Shifting diagonal of input Hessian by    0.0000000000000000     
 Lowest  eigenvalues of input Hessian
    0.000000    0.000000    0.000000    0.000000    0.000000    0.000000
    0.019500    0.021144    0.024521    0.030040    0.052213    0.060216
    0.080247    0.081460    0.090428    0.092787    0.118097    0.125191
 Highest eigenvalues
    3.364105    3.563215    3.797416    3.823000    4.220304    4.339799


........................................................................
.............................. CYCLE    1 ..............................
........................................................................
     iter. time                 ...        0 min,  0.001 sec
 * total energy  :    -6.2248972 Eh     change        0.0000000E+00 Eh
   gradient norm :     0.1727296 Eh/α   predicted     0.0000000E+00 (    NaN%)
   displ. norm   :     0.0898456 α      lambda       -0.1136980E-01
   maximum displ.:     0.0318427 α      in ANC's #42, #89, #9, ...

........................................................................
.............................. CYCLE    2 ..............................
........................................................................
     iter. time                 ...        0 min,  0.001 sec
 * total energy  :    -6.2323760 Eh     change       -0.7478754E-02 Eh
   gradient norm :     0.0611271 Eh/α   predicted    -0.5730784E-02 ( -23.37%)
   displ. norm   :     0.0521915 α      lambda       -0.2307981E-02
   maximum displ.:     0.0185366 α      in ANC's #89, #9, #2, ...

........................................................................
.............................. CYCLE    3 ..............................
........................................................................
     iter. time                 ...        0 min,  0.001 sec
 * total energy  :    -6.2336573 Eh     change       -0.1281303E-02 Eh
   gradient norm :     0.0156708 Eh/α   predicted    -0.1157227E-02 (  -9.68%)
   displ. norm   :     0.0206944 α      lambda       -0.1830978E-03
   maximum displ.:     0.0088280 α      in ANC's #16, #34, #2, ...

........................................................................
.............................. CYCLE    4 ..............................
........................................................................
     iter. time                 ...        0 min,  0.001 sec
 * total energy  :    -6.2337913 Eh     change       -0.1340023E-03 Eh
   gradient norm :     0.0086643 Eh/α   predicted    -0.9549035E-04 ( -28.74%)
   displ. norm   :     0.0191020 α      lambda       -0.8430611E-04
   maximum displ.:     0.0085354 α      in ANC's #34, #16, #1, ...

........................................................................
.............................. CYCLE    5 ..............................
........................................................................
     iter. time                 ...        0 min,  0.000 sec
 * total energy  :    -6.2338402 Eh     change       -0.4897911E-04 Eh
   gradient norm :     0.0031339 Eh/α   predicted    -0.4218059E-04 ( -13.88%)
   displ. norm   :     0.0080530 α      lambda       -0.1039089E-04
   maximum displ.:     0.0044408 α      in ANC's #1, #34, #2, ...

........................................................................
.............................. CYCLE    6 ..............................
........................................................................
     iter. time                 ...        0 min,  0.000 sec
 * total energy  :    -6.2338481 Eh     change       -0.7850952E-05 Eh
   gradient norm :     0.0018684 Eh/α   predicted    -0.5414922E-05 ( -31.03%)
   displ. norm   :     0.0155581 α      lambda       -0.7422450E-05
   maximum displ.:     0.0095985 α      in ANC's #1, #2, #34, ...

........................................................................
.............................. CYCLE    7 ..............................
........................................................................
     iter. time                 ...        0 min,  0.000 sec
 * total energy  :    -6.2338531 Eh     change       -0.5016446E-05 Eh
   gradient norm :     0.0018847 Eh/α   predicted    -0.3719911E-05 ( -25.85%)
   displ. norm   :     0.0041777 α      lambda       -0.1305790E-05
   maximum displ.:     0.0028079 α      in ANC's #1, #2, #3, ...

........................................................................
.............................. CYCLE    8 ..............................
........................................................................
     iter. time                 ...        0 min,  0.001 sec
 * total energy  :    -6.2338548 Eh     change       -0.1669572E-05 Eh
   gradient norm :     0.0007691 Eh/α   predicted    -0.7633633E-06 ( -54.28%)
   displ. norm   :     0.0101467 α      lambda       -0.1157271E-05
   maximum displ.:     0.0074428 α      in ANC's #1, #2, #3, ...

........................................................................
.............................. CYCLE    9 ..............................
........................................................................
     iter. time                 ...        0 min,  0.001 sec
 * total energy  :    -6.2338560 Eh     change       -0.1164537E-05 Eh
   gradient norm :     0.0005153 Eh/α   predicted    -0.5981735E-06 ( -48.63%)
   displ. norm   :     0.0070465 α      lambda        0.1586430E-06
   maximum displ.:     0.0051338 α      in ANC's #1, #2, #3, ...

........................................................................
.............................. CYCLE   10 ..............................
........................................................................
     iter. time                 ...        0 min,  0.001 sec
 * total energy  :    -6.2338559 Eh     change        0.7334186E-07 Eh
   gradient norm :     0.0012820 Eh/α   predicted     0.5274778E-07 ( -28.08%)
   displ. norm   :     0.0016153 α      lambda       -0.5586893E-06
   maximum displ.:     0.0010086 α      in ANC's #1, #2, #4, ...

   *** FAILED TO CONVERGE GEOMETRY OPTIMIZATION IN 10 ITERATIONS ***


 ANCopt (total)                0 d,  0 h,  0 min,  0.008 sec
 optimizer setup                ...        0 min,  0.000 sec (  0.761%)
 model hessian                  ...        0 min,  0.000 sec (  3.141%)
 ANC generation                 ...        0 min,  0.001 sec (  8.358%)
 coordinate transformation      ...        0 min,  0.000 sec (  0.468%)
 single point calculation       ...        0 min,  0.006 sec ( 75.675%)
 optimization log               ...        0 min,  0.000 sec (  5.823%)
 hessian update                 ...        0 min,  0.000 sec (  0.688%)
 rational function              ...        0 min,  0.000 sec (  2.857%)

================
 final structure:
================
ATOM      1  C   VAL A   8      -8.893 -11.765   5.409  1.00  0.00           C  
ATOM      2  O   VAL A   8      -7.963 -11.123   5.840  1.00  0.00           O  
ATOM      3  N   GLY A   9      -8.728 -12.760   4.496  1.00  0.00           N  
ATOM      4  CA  GLY A   9      -7.449 -13.464   4.463  1.00  0.00           C  
ATOM      5  C   GLY A   9      -6.758 -13.425   3.156  1.00  0.00           C  
ATOM      6  O   GLY A   9      -7.225 -13.977   2.183  1.00  0.00           O  
ATOM      7  H   GLY A   9      -9.523 -13.354   4.240  1.00  0.00           H  
ATOM      8  HA2 GLY A   9      -6.816 -13.011   5.234  1.00  0.00           H  
ATOM      9  HA3 GLY A   9      -7.602 -14.508   4.766  1.00  0.00           H  
ATOM     10  N   GLY A  10      -5.555 -12.765   3.139  1.00  0.00           N  
ATOM     11  CA  GLY A  10      -4.800 -12.697   1.932  1.00  0.00           C  
ATOM     12  C   GLY A  10      -4.757 -11.294   1.389  1.00  0.00           C  
ATOM     13  O   GLY A  10      -5.794 -10.665   1.357  1.00  0.00           O  
ATOM     14  H   GLY A  10      -5.294 -12.099   3.869  1.00  0.00           H  
ATOM     15  HA2 GLY A  10      -3.807 -13.105   2.121  1.00  0.00           H  
ATOM     16  HA3 GLY A  10      -5.292 -13.346   1.196  1.00  0.00           H  
ATOM     17  N   GLY A  11      -3.593 -10.713   0.914  1.00  0.00           N  
ATOM     18  CA  GLY A  11      -2.287 -11.354   0.783  1.00  0.00           C  
ATOM     19  C   GLY A  11      -1.827 -11.386  -0.641  1.00  0.00           C  
ATOM     20  O   GLY A  11      -2.415 -12.082  -1.440  1.00  0.00           O  
ATOM     21  H   GLY A  11      -3.658  -9.813   0.445  1.00  0.00           H  
ATOM     22  HA2 GLY A  11      -1.567 -10.820   1.411  1.00  0.00           H  
ATOM     23  HA3 GLY A  11      -2.323 -12.379   1.153  1.00  0.00           H  
ATOM     24  N   GLY A  12      -0.740 -10.620  -0.997  1.00  0.00           N  
ATOM     25  CA  GLY A  12      -0.378 -10.469  -2.388  1.00  0.00           C  
ATOM     26  C   GLY A  12      -0.747  -9.094  -2.896  1.00  0.00           C  
ATOM     27  O   GLY A  12      -1.757  -8.584  -2.482  1.00  0.00           O  
ATOM     28  H   GLY A  12      -0.382  -9.891  -0.379  1.00  0.00           H  
ATOM     29  HA2 GLY A  12       0.691 -10.677  -2.495  1.00  0.00           H  
ATOM     30  HA3 GLY A  12      -0.928 -11.223  -2.957  1.00  0.00           H  
ATOM     31  N   GLY A  13       0.077  -8.457  -3.832  1.00  0.00           N  
ATOM     32  CA  GLY A  13       1.298  -8.871  -4.352  1.00  0.00           C  
ATOM     33  H   GLY A  13      -0.257  -7.542  -4.175  1.00  0.00           H  
ATOM     34  HA2 GLY A  13       2.144  -8.563  -3.747  1.00  0.00           H  
ATOM     35  HA3 GLY A  13       1.328  -9.973  -4.372  1.00  0.00           H  
END

 Bond Distances (Angstroems)
 ---------------------------
C1-O2=1.2091         C1-N3=1.3606         O2-C1=1.2091         N3-C1=1.3606         N3-C4=1.4596         N3-H7=1.0247         
C4-N3=1.4596         C4-C5=1.4799         C4-H8=1.0956         C4-H9=1.0979         C5-C4=1.4799         C5-O6=1.2122         
C5-N10=1.3717        O6-C5=1.2122         H7-N3=1.0247         H8-C4=1.0956         H9-C4=1.0979         N10-C5=1.3717        
N10-C11=1.4257       N10-H14=1.0222       C11-N10=1.4257       C11-C12=1.5049       C11-H15=1.0905       C11-H16=1.0977       
C12-C11=1.5049       C12-O13=1.2137       C12-N17=1.3844       O13-C12=1.2137       H14-N10=1.0222       H15-C11=1.0905       
H16-C11=1.0977       N17-C12=1.3844       N17-C18=1.4609       N17-H21=1.0171       C18-N17=1.4609       C18-C19=1.4970       
C18-H22=1.0947       C18-H23=1.0906       C19-C18=1.4970       C19-O20=1.2122       C19-N24=1.3759       O20-C19=1.2122       
H21-N17=1.0171       H22-C18=1.0947       H23-C18=1.0906       N24-C19=1.3759       N24-C25=1.4454       N24-H28=1.0208       
C25-N24=1.4454       C25-C26=1.5118       C25-H29=1.0936       C25-H30=1.0937       C26-C25=1.5118       C26-O27=1.2046       
C26-N31=1.4002       O27-C26=1.2046       H28-N24=1.0208       H29-C25=1.0936       H30-C25=1.0937       N31-C26=1.4002       
N31-C32=1.3900       N31-H33=1.0336       C32-N31=1.3900       C32-H34=1.0848       C32-H35=1.1022       H33-N31=1.0336       
H34-C32=1.0848       H35-C32=1.1022       
 C  H  Rav=1.0941 sigma=0.0046  Rmin=1.0848  Rmax=1.1022    10
 C  C  Rav=1.4984 sigma=0.0119  Rmin=1.4799  Rmax=1.5118     4
 N  H  Rav=1.0237 sigma=0.0055  Rmin=1.0171  Rmax=1.0336     5
 N  C  Rav=1.4074 sigma=0.0356  Rmin=1.3606  Rmax=1.4609    10
 O  C  Rav=1.2104 sigma=0.0032  Rmin=1.2046  Rmax=1.2137     5

 selected bond angles (degree)
 --------------------
N3-C1-O2=122.28                C4-N3-C1=118.28                H7-N3-C1=119.80                H7-N3-C4=113.22                
C5-C4-N3=114.62                H8-C4-N3=106.95                H8-C4-C5=109.89                H9-C4-N3=109.31                
H9-C4-C5=109.47                H9-C4-H8=106.24                O6-C5-C4=121.09                N10-C5-C4=115.66               
N10-C5-O6=123.23               C11-N10-C5=119.84              H14-N10-C5=121.90              H14-N10-C11=116.02             

 selected dihedral angles (degree)
 ---------------------------------
C4-N3-C1-O2= 27.16            H7-N3-C1-O2=172.65            C5-C4-N3-C1=237.21            C5-C4-N3-H7= 89.55            
H8-C4-N3-C1=359.28            H8-C4-N3-H7=211.62            H9-C4-N3-C1=113.90            H9-C4-N3-H7=326.24            
O6-C5-C4-N3=293.90            O6-C5-C4-H8=173.45            O6-C5-C4-H9= 57.13            N10-C5-C4-N3=115.71           
N10-C5-C4-H8=355.25           N10-C5-C4-H9=238.93           C11-N10-C5-C4=178.76          C11-N10-C5-O6=  0.61          
H14-N10-C5-C4=341.06          H14-N10-C5-O6=162.91          
           -------------------------------------------------
          |                Final Singlepoint                |
           -------------------------------------------------
         :::::::::::::::::::::::::::::::::::::::::::::::::::::
         ::                     SUMMARY                     ::
         :::::::::::::::::::::::::::::::::::::::::::::::::::::
         :: total energy              -6.233856542172 Eh    ::
         :: total w/o Gsolv           -6.194754629657 Eh    ::
         :: total w/o Gsasa/hb        -6.228900968638 Eh    ::
         :: gradient norm              0.000620531211 Eh/a0 ::
         ::.................................................::
         :: bond energy               -6.298675727311 Eh    ::
         :: angle energy               0.025986318504 Eh    ::
         :: torsion energy             0.023653986002 Eh    ::
         :: repulsion energy           0.390460124051 Eh    ::
         :: electrostat energy        -0.308611581504 Eh    ::
         :: dispersion energy         -0.023150561472 Eh    ::
         :: HB energy                 -0.000614134392 Eh    ::
         :: XB energy                  0.000000000000 Eh    ::
         :: bonded atm energy         -0.008122127591 Eh    ::
         :: external energy            0.000000000000 Eh    ::
         :: -> Gsolv                  -0.039101912515 Eh    ::
         ::    -> Gborn               -0.034146338981 Eh    ::
         ::    -> Gsasa                0.009637411078 Eh    ::
         ::    -> Ghb                 -0.014957923867 Eh    ::
         ::    -> Gshift               0.000364939255 Eh    ::
         :: add. restraining           0.004319074055 Eh    ::
         :: total charge              -0.000000000000 e     ::
         ::.................................................::
         :: atomisation energy         0.000000000000 Eh    ::
         :::::::::::::::::::::::::::::::::::::::::::::::::::::

           -------------------------------------------------
          |                Property Printout                |
           -------------------------------------------------
           -------------------------------------------------
          |                Geometry Summary                 |
           -------------------------------------------------

      molecular mass/u    :      285.2570109
   center of mass at/Å    :       -4.0149396     -11.2753094       0.7997015
  moments of inertia/u·Å² :        0.4509184E+03   0.5808512E+04   0.5988482E+04
rotational constants/cm⁻¹ :        0.3738510E-01   0.2902229E-02   0.2815009E-02

 * 30 selected distances

     #   Z          #   Z                                           value/Å
     1   6  C       3   7  N                                      1.3605548
     3   7  N       4   6  C                                      1.4596287
     4   6  C       5   6  C                                      1.4798851 (max)
     5   6  C       6   8  O                                      1.2121647
     3   7  N       7   1  H                                      1.0246849
     4   6  C       8   1  H                                      1.0956302
     4   6  C       9   1  H                                      1.0979154
     5   6  C      10   7  N                                      1.3717383
    10   7  N      11   6  C                                      1.4257235
    12   6  C      13   8  O                                      1.2137484
    10   7  N      14   1  H                                      1.0221675
    11   6  C      15   1  H                                      1.0904879
    11   6  C      16   1  H                                      1.0976858
    12   6  C      17   7  N                                      1.3844433
    17   7  N      18   6  C                                      1.4608630
    19   6  C      20   8  O                                      1.2121683
    17   7  N      21   1  H                                      1.0171023 (min)
    18   6  C      22   1  H                                      1.0947184
    18   6  C      23   1  H                                      1.0905599
    19   6  C      24   7  N                                      1.3759243
    24   7  N      25   6  C                                      1.4453718
    26   6  C      27   8  O                                      1.2046062
    24   7  N      28   1  H                                      1.0208215
    25   6  C      29   1  H                                      1.0935751
    25   6  C      30   1  H                                      1.0936584
    26   6  C      31   7  N                                      1.4002373
    31   7  N      32   6  C                                      1.3899977
    31   7  N      33   1  H                                      1.0336248
    32   6  C      34   1  H                                      1.0848276
    32   6  C      35   1  H                                      1.1022161

 * 5 distinct bonds (by element types)

   Z      Z             #   av. dist./Å        max./Å        min./Å
   1 H    6 C          10     1.0941275     1.1022161     1.0848276
   6 C    6 C           1     1.4798851     1.4798851     1.4798851
   1 H    7 N           5     1.0236802     1.0336248     1.0171023
   6 C    7 N          10     1.4074483     1.4608630     1.3605548
   6 C    8 O           4     1.2106719     1.2137484     1.2046062


optimized geometry written to: xtbopt.pdb


           -------------------------------------------------
          | TOTAL ENERGY               -6.233856542172 Eh   |
          | GRADIENT NORM               0.000620531211 Eh/α |
           -------------------------------------------------
########################################################################
[WARNING] Runtime exception occurred
-1- gfnff_setup: Could not read topology file.
########################################################################

------------------------------------------------------------------------
 unit  open   action     filename
   10 false : read       xtb_settings.inp
   10 false : read       substructure_20.pdb
   10 false : read       xtb_settings.inp
   10 false : written    gfnff_topo
   10 false : written    gfnff_adjacency
   10 false : written    gfnff_charges
   10 false : deleted    .xtboptok
   10 false : replaced   xtbopt.log
   11 false : created    .xtboptok
   11 false : replaced   gfnff_charges
   10 false : replaced   xtbopt.pdb

------------------------------------------------------------------------
 * finished run on 2025/05/27 at 09:37:40.289     
------------------------------------------------------------------------
 total:
 * wall-time:     0 d,  0 h,  0 min,  0.013 sec
 *  cpu-time:     0 d,  0 h,  0 min,  0.012 sec
 * ratio c/w:     0.995 speedup
 SCF:
 * wall-time:     0 d,  0 h,  0 min,  0.001 sec
 *  cpu-time:     0 d,  0 h,  0 min,  0.001 sec
 * ratio c/w:     0.999 speedup
 ANC optimizer:
 * wall-time:     0 d,  0 h,  0 min,  0.009 sec
 *  cpu-time:     0 d,  0 h,  0 min,  0.008 sec
 * ratio c/w:     0.994 speedup

