      -----------------------------------------------------------      
     |                   =====================                   |     
     |                           x T B                           |     
     |                   =====================                   |     
     |                         S. Grimme                         |     
     |          Mulliken Center for Theoretical Chemistry        |     
     |                    University of Bonn                     |     
      -----------------------------------------------------------      

   * xtb version 6.6.1 (8d0f1dd) compiled by 'conda@1efc2f54142f' on 2023-08-01

   xtb is free software: you can redistribute it and/or modify it under
   the terms of the GNU Lesser General Public License as published by
   the Free Software Foundation, either version 3 of the License, or
   (at your option) any later version.
   
   xtb is distributed in the hope that it will be useful,
   but WITHOUT ANY WARRANTY; without even the implied warranty of
   MERCHANTABILITY or FITNESS FOR A PARTICULAR PURPOSE.  See the
   GNU Lesser General Public License for more details.
   
   Cite this work as:
   * C. Bannwarth, E. Caldeweyher, S. Ehlert, A. Hansen, P. Pracht,
     J. Seibert, S. Spicher, S. Grimme, WIREs Comput. Mol. Sci., 2020, 11,
     e01493. DOI: 10.1002/wcms.1493
   
   for GFN2-xTB:
   * C. Bannwarth, S. Ehlert and S. Grimme., J. Chem. Theory Comput., 2019,
     15, 1652-1671. DOI: 10.1021/acs.jctc.8b01176
   for GFN1-xTB:
   * S. Grimme, C. Bannwarth, P. Shushkov, J. Chem. Theory Comput., 2017,
     13, 1989-2009. DOI: 10.1021/acs.jctc.7b00118
   for GFN0-xTB:
   * P. Pracht, E. Caldeweyher, S. Ehlert, S. Grimme, ChemRxiv, 2019, preprint.
     DOI: 10.26434/chemrxiv.8326202.v1
   for GFN-FF:
   * S. Spicher and S. Grimme, Angew. Chem. Int. Ed., 2020, 59, 15665-15673.
     DOI: 10.1002/anie.202004239
   
   for ALPB and GBSA implicit solvation:
   * S. Ehlert, M. Stahn, S. Spicher, S. Grimme, J. Chem. Theory Comput.,
     2021, 17, 4250-4261. DOI: 10.1021/acs.jctc.1c00471
   
   for DFT-D4:
   * E. Caldeweyher, C. Bannwarth and S. Grimme, J. Chem. Phys., 2017,
     147, 034112. DOI: 10.1063/1.4993215
   * E. Caldeweyher, S. Ehlert, A. Hansen, H. Neugebauer, S. Spicher,
     C. Bannwarth and S. Grimme, J. Chem. Phys., 2019, 150, 154122.
     DOI: 10.1063/1.5090222
   * E. Caldeweyher, J.-M. Mewes, S. Ehlert and S. Grimme, Phys. Chem. Chem. Phys.
     2020, 22, 8499-8512. DOI: 10.1039/D0CP00502A
   
   for sTDA-xTB:
   * S. Grimme and C. Bannwarth, J. Chem. Phys., 2016, 145, 054103.
     DOI: 10.1063/1.4959605
   
   in the mass-spec context:
   * V. Asgeirsson, C. Bauer and S. Grimme, Chem. Sci., 2017, 8, 4879.
     DOI: 10.1039/c7sc00601b
   * J. Koopman and S. Grimme, ACS Omega 2019, 4, 12, 15120-15133.
     DOI: 10.1021/acsomega.9b02011
   
   for metadynamics refer to:
   * S. Grimme, J. Chem. Theory Comput., 2019, 155, 2847-2862
     DOI: 10.1021/acs.jctc.9b00143
   
   for SPH calculations refer to:
   * S. Spicher and S. Grimme, J. Chem. Theory Comput., 2021, 17, 1701-1714
     DOI: 10.1021/acs.jctc.0c01306
   
   with help from (in alphabetical order)
   P. Atkinson, C. Bannwarth, F. Bohle, G. Brandenburg, E. Caldeweyher
   M. Checinski, S. Dohm, S. Ehlert, S. Ehrlich, I. Gerasimov, C. Hölzer
   A. Katbashev, J. Koopman, C. Lavigne, S. Lehtola, F. März, M. Müller,
   F. Musil, H. Neugebauer, J. Pisarek, C. Plett, P. Pracht, F. Pultar,
   J. Seibert, P. Shushkov, S. Spicher, M. Stahn, M. Steiner, T. Strunk,
   J. Stückrath, T. Rose, and J. Unsleber
   
 * started run on 2025/05/27 at 09:37:34.160     

           -------------------------------------------------
          |                Calculation Setup                |
           -------------------------------------------------

          program call               : xtb substructure_8.pdb --gfnff --input xtb_settings.inp --opt vtight --alpb water --verbose
          coordinate file            : substructure_8.pdb
          xtbhome directory          : /home/dargen3
          path for xtb               : /home/dargen3
          xcontrol input file        : xtb_settings.inp
          omp threads                :                     1

$$$$$$$$$$$$$$$$$$$$$$$$$$$$$$$$$$$$$$$$$$$$$$$$$$$$$$$$$$$$$$$$$$$$$$$$
 CONSTRAINTS & SCANS: DEBUG SECTION
$$$$$$$$$$$$$$$$$$$$$$$$$$$$$$$$$$$$$$$$$$$$$$$$$$$$$$$$$$$$$$$$$$$$$$$$
   ID    Z sym.   atoms
    1    6  C     1, 4, 5, 11, 12, 18, 19, 25, 26, 32
    2    8  O     2, 6, 13, 20, 27
    3    7  N     3, 10, 17, 24, 31
    4    1  H     7-9, 14-16, 21-23, 28-30, 33-35
> constrain
-> atoms: 1, 2, 3, 4, 5, 6, 7, 8, 9, 10, 11, 12, 13, 14, 15, 16, 18, 24, 25, 26, 27, 28, 29, 30, 31, 32, 33, 34, 35
--> 1: 1
--> 2: 2
--> 3: 3
--> 4: 4
--> 5: 5
--> 6: 6
--> 7: 7
--> 8: 8
--> 9: 9
--> 10: 10
--> 11: 11
--> 12: 12
--> 13: 13
--> 14: 14
--> 15: 15
--> 16: 16
--> 17: 18
--> 18: 24
--> 19: 25
--> 20: 26
--> 21: 27
--> 22: 28
--> 23: 29
--> 24: 30
--> 25: 31
--> 26: 32
--> 27: 33
--> 28: 34
--> 29: 35
-> force constant=1.0
$$$$$$$$$$$$$$$$$$$$$$$$$$$$$$$$$$$$$$$$$$$$$$$$$$$$$$$$$$$$$$$$$$$$$$$$
           -------------------------------------------------
          |                   Constraints                   |
           -------------------------------------------------

 * 29 constrained atom positions
   positions refering to input geometry

     #   Z                                   position/Å      displ./Å
     1   6 C     -8.9190008   -11.7250011     5.3590005     0.0000000
     2   8 O     -7.9850007   -10.9830010     5.5880005     0.0000000
     3   7 N     -8.7670008   -12.8800012     4.6190004     0.0000000
     4   6 C     -7.4510007   -13.4620012     4.4550004     0.0000000
     5   6 C     -6.8210006   -13.2900012     3.1380003     0.0000000
     6   8 O     -7.4200007   -13.5630013     2.1190002     0.0000000
     7   1 H     -9.5080009   -13.5880013     4.6850004     0.0000000
     8   1 H     -6.8090006   -13.0050012     5.2350005     0.0000000
     9   1 H     -7.4850007   -14.5340013     4.7080004     0.0000000
    10   7 N     -5.5280005   -12.8340012     3.1490003     0.0000000
    11   6 C     -4.7940004   -12.6990012     1.9410002     0.0000000
    12   6 C     -4.7160004   -11.2480010     1.5100001     0.0000000
    13   8 O     -5.7240005   -10.5760010     1.5830001     0.0000000
    14   1 H     -5.1200005   -12.3790011     3.9690004     0.0000000
    15   1 H     -3.8220004   -13.1570012     2.0460002     0.0000000
    16   1 H     -5.3440005   -13.2540012     1.1560001     0.0000000
    18   6 C     -2.2890002   -11.3470011     0.7820001     0.0000000
    24   7 N     -0.7450001   -10.6740010    -1.0080001     0.0000000
    25   6 C     -0.3730000   -10.4770010    -2.3880002     0.0000000
    26   6 C     -0.6850001    -9.0570008    -2.8250003     0.0000000
    27   8 O     -1.6650002    -8.5150008    -2.3570002     0.0000000
    28   1 H     -0.2780000   -10.0490009    -0.3490000     0.0000000
    29   1 H      0.6780001   -10.7100010    -2.5170002     0.0000000
    30   1 H     -0.9640001   -11.1710010    -2.9940003     0.0000000
    31   7 N      0.0920000    -8.4010008    -3.7460003     0.0000000
    32   6 C      1.3240001    -8.8870008    -4.3620004     0.0000000
    33   1 H     -0.2130000    -7.4950007    -4.0910004     0.0000000
    34   1 H      2.1700002    -8.6140008    -3.7560003     0.0000000
    35   1 H      1.2810001    -9.9920009    -4.4140004     0.0000000

     applying 406 atom pairwise harmonic potentials
       applied force constant per pair:     0.0357143
     effective force constant per atom:     1.0000000
         constraining energy/grad norm:     0.0000000     0.0000000

     total constraint energy/grad norm:     0.0000000     0.0000000

          charge from pdb residues: 0

          entering GFN-FF setup routine... 35

          ==================== Thresholds ====================
          CN  :   150.00000
          rep :   500.00000
          disp:  2500.00000
          HB1 :   250.00000
          HB2 :   450.00000

          Pauling EN used:
          Z : 1  EN :  2.20
          Z : 6  EN :  2.55
          Z : 7  EN :  3.04
          Z : 8  EN :  3.44
          electric field strengths (au): 0.000

           ------------------------------------------------- 
          |           Force Field Initialization            |
           ------------------------------------------------- 

          distances ...
          ----------------------------------------
          generating topology and atomic info file ...
          pair mat ...
          computing topology distances matrix with Floyd-Warshall algo ...
          making topology EEQ charges ...
          #fragments for EEQ constrain from pdb file: 6
          ----------------------------------------
          generating topology and atomic info file ...
          pair mat ...
          computing topology distances matrix with Floyd-Warshall algo ...
          making topology EEQ charges ...
          #fragments for EEQ constrain from pdb file: 6
          rings ...
          # BATM   270
          # H in HB   15
          doing iterative Hueckel for 5 subsystem(s) ...
          iterative Hueckel run to get P ...
Hueckel system :  1 charge :   0 ndim/Nel :    3    3   eps(HOMO/LUMO)   -0.953512   -0.953512
Hueckel system :  2 charge :   0 ndim/Nel :    3    4   eps(HOMO/LUMO)   -0.911362   -0.911362
Hueckel system :  3 charge :   0 ndim/Nel :    3    4   eps(HOMO/LUMO)   -0.911922   -0.911922
Hueckel system :  4 charge :   0 ndim/Nel :    3    4   eps(HOMO/LUMO)   -0.910012   -0.910012
Hueckel system :  5 charge :   0 ndim/Nel :    4    5   eps(HOMO/LUMO)    1.305315    1.305315
WARNING: probably wrong pi occupation for system 5. Second attempt with Nel=Nel-1!
 at,nb,topo%hyb,Npiel:          26  C             3           2           1
 at,nb,topo%hyb,Npiel:          27  O             1           2           1
 at,nb,topo%hyb,Npiel:          31  N             3           3           2
 at,nb,topo%hyb,Npiel:          32  C             3           2           1

          eigenvalues
 #    :           1          2          3          4
 occ. :        2.000      1.987      0.013      0.000
 eps  :        -4.349     -2.183      1.305      3.389
Hueckel system :  5 charge :   0 ndim/Nel :    4    4   eps(HOMO/LUMO)   -2.182828    1.305315

  atom   neighbors  erfCN metchar sp-hybrid imet pi  qest     coordinates
    1   C      2    1.93   0.00        -2    0    1   0.120  -16.854467  -22.157039   10.127042
    2   O      1    0.98   0.00         2    0    1  -0.120  -15.089463  -20.754862   10.559790
    3   N      3    2.79   0.00        -3    0    1  -0.166  -16.567229  -24.339672    8.728645
    4   C      4    3.50   0.00         3    0    0   0.005  -14.080349  -25.439493    8.418730
    5   C      3    2.80   0.00         2    0    1   0.174  -12.889822  -25.114460    5.929961
    6   O      1    0.98   0.00         2    0    1  -0.352  -14.021768  -25.630355    4.004330
    7   H      1    0.98   0.00         0    0    0   0.153  -17.967516  -25.677599    8.853367
    8   H      1    0.97   0.01         0    0    0   0.093  -12.867145  -24.575888    9.892716
    9   H      1    0.97   0.01         0    0    0   0.093  -14.144600  -27.465279    8.896831
   10   N      3    2.80   0.00        -3    0    1  -0.168  -10.446406  -24.252745    5.950748
   11   C      4    3.50   0.00         3    0    0   0.006   -9.059347  -23.997632    3.667958
   12   C      3    2.79   0.00         2    0    1   0.175   -8.911948  -21.255639    2.853486
   13   O      1    0.98   0.00         2    0    1  -0.352  -10.816792  -19.985743    2.991436
   14   H      1    0.98   0.00         0    0    0   0.154   -9.675398  -23.392920    7.500323
   15   H      1    0.97   0.00         0    0    0   0.092   -7.222533  -24.863127    3.866380
   16   H      1    0.97   0.01         0    0    0   0.092  -10.098696  -25.046430    2.184523
   17   N      3    2.79   0.00        -3    0    1  -0.167   -6.723646  -20.176606    1.961536
   18   C      4    3.49   0.00         3    0    0   0.005   -4.325583  -21.442722    1.477766
   19   C      3    2.80   0.00         2    0    1   0.178   -3.607487  -21.393589   -1.256668
   20   O      1    0.98   0.00         2    0    1  -0.353   -4.966200  -22.393255   -2.806243
   21   H      1    0.98   0.00         0    0    0   0.151   -6.814352  -18.394594    1.247219
   22   H      1    0.97   0.00         0    0    0   0.093   -2.855376  -20.564000    2.638058
   23   H      1    0.97   0.00         0    0    0   0.093   -4.416290  -23.425045    2.078699
   24   N      3    2.79   0.00        -3    0    1  -0.170   -1.407846  -20.170937   -1.904844
   25   C      4    3.49   0.00         3    0    0   0.006   -0.704868  -19.798661   -4.512666
   26   C      3    2.79   0.00         2    0    1   0.195   -1.294462  -17.115250   -5.338476
   27   O      1    0.98   0.00         2    0    1  -0.357   -3.146394  -16.091018   -4.454084
   28   H      1    0.98   0.00         0    0    0   0.147   -0.525344  -18.989858   -0.659514
   29   H      1    0.97   0.00         0    0    0   0.090    1.281234  -20.238967   -4.756441
   30   H      1    0.97   0.00         0    0    0   0.090   -1.821696  -21.110131   -5.657840
   31   N      3    2.79   0.00         3    0    1  -0.226    0.173855  -15.875589   -7.078914
   32   C      3    2.78   0.00         2    0    1  -0.008    2.501997  -16.793996   -8.242985
   33   H      1    0.98   0.00         0    0    0   0.123   -0.402512  -14.163497   -7.730870
   34   H      1    0.97   0.00         0    0    0   0.055    4.100706  -16.278101   -7.097811
   35   H      1    0.97   0.01         0    0    0   0.055    2.420739  -18.882143   -8.341251

molecular fragment  # atoms  topo charge
       1             2            -0.000
       2             7            -0.000
       3             7            -0.000
       4             7             0.000
       5             7             0.000
       6             5            -0.000


          #atoms :   35
          #bonds :   34

 bond atoms        type  in ring    R      R0    piBO    fqq  kbond(tot)  alp
 O  C     2    1      2    0     1.215   0.996   0.799   1.047  -0.252   0.584
 N  C     3    1      2    0     1.380   1.214   0.504   1.047  -0.235   0.524
 C  N     4    3      1    0     1.448   1.326 -99.000   1.033  -0.151   0.496
 C  C     5    4      1    0     1.470   1.333 -99.000   1.013  -0.162   0.475
 O  C     6    5      2    0     1.213   1.031   0.856   1.047  -0.262   0.584
 H  N     7    3      1    0     1.027   0.890 -99.000   1.047  -0.176   0.551
 H  C     8    4      1    0     1.109   0.976 -99.000   1.018  -0.164   0.482
 H  C     9    4      1    0     1.102   0.977 -99.000   1.018  -0.164   0.482
 N  C    10    5      2    0     1.371   1.263   0.503   1.047  -0.234   0.524
 C  N    11   10      1    0     1.420   1.326 -99.000   1.036  -0.151   0.496
 C  C    12   11      1    0     1.516   1.332 -99.000   1.011  -0.162   0.475
 O  C    13   12      2    0     1.214   1.031   0.856   1.047  -0.262   0.584
 H  N    14   10      1    0     1.023   0.890 -99.000   1.047  -0.176   0.551
 H  C    15   11      1    0     1.080   0.977 -99.000   1.016  -0.164   0.482
 H  C    16   11      1    0     1.108   0.976 -99.000   1.016  -0.164   0.482
 N  C    17   12      2    0     1.375   1.263   0.503   1.047  -0.234   0.524
 C  N    18   17      1    0     1.458   1.326 -99.000   1.033  -0.151   0.496
 C  C    19   18      1    0     1.496   1.332 -99.000   1.014  -0.162   0.475
 O  C    20   19      2    0     1.212   1.031   0.856   1.047  -0.262   0.584
 H  N    21   17      1    0     1.017   0.890 -99.000   1.047  -0.176   0.551
 H  C    22   18      1    0     1.095   0.976 -99.000   1.018  -0.164   0.482
 H  C    23   18      1    0     1.097   0.976 -99.000   1.018  -0.164   0.482
 N  C    24   19      2    0     1.375   1.263   0.504   1.047  -0.234   0.524
 C  N    25   24      1    0     1.443   1.326 -99.000   1.034  -0.151   0.496
 C  C    26   25      1    0     1.518   1.332 -99.000   1.011  -0.162   0.475
 O  C    27   26      2    0     1.214   1.018   0.930   1.047  -0.274   0.584
 H  N    28   24      1    0     1.021   0.890 -99.000   1.047  -0.176   0.551
 H  C    29   25      1    0     1.084   0.977 -99.000   1.018  -0.164   0.482
 H  C    30   25      1    0     1.095   0.976 -99.000   1.018  -0.164   0.482
 N  C    31   26      2    0     1.372   1.291   0.346   1.047  -0.203   0.524
 C  N    32   31      2    0     1.461   1.189   0.906   1.006  -0.302   0.524
 H  N    33   31      1    0     1.016   0.890 -99.000   1.047  -0.176   0.551
 H  C    34   32      1    0     1.076   0.950 -99.000   1.029  -0.179   0.490
 H  C    35   32      1    0     1.107   0.949 -99.000   1.029  -0.179   0.490
          #angl  :   55

 angle atoms        phi0    phi      FC  pi rings
    1    3    2   145.000 121.846   0.082 F   0
    3    4    1   115.000 119.809   0.411 F   0
    3    7    1   115.000 117.582   0.335 F   0
    3    7    4   104.000 112.698   0.182 F   0
    4    5    3   109.500 116.350   0.307 F   0
    4    8    3   109.500 106.310   0.253 F   0
    4    8    5   109.500 109.504   0.251 F   0
    4    9    3   109.500 109.688   0.253 F   0
    4    9    5   109.500 109.435   0.251 F   0
    4    9    8   108.600 104.910   0.209 F   0
    5    6    4   120.000 120.970   0.178 F   0
    5   10    4   120.000 115.841   0.243 F   0
    5   10    6   120.000 123.177   0.176 F   0
   10   11    5   115.000 120.815   0.409 F   0
   10   14    5   115.000 122.048   0.333 F   0
   10   14   11   104.000 115.697   0.182 F   0
   11   12   10   109.500 111.072   0.307 F   0
   11   15   10   109.500 110.018   0.253 F   0
   11   15   12   109.500 112.796   0.252 F   0
   11   16   10   109.500 107.375   0.253 F   0
   11   16   12   109.500 107.681   0.252 F   0
   11   16   15   108.600 107.664   0.209 F   0
   12   13   11   120.000 118.049   0.178 F   0
   12   17   11   120.000 122.590   0.243 F   0
   12   17   13   120.000 119.360   0.176 F   0
   17   18   12   115.000 127.065   0.409 F   0
   17   21   12   115.000 118.227   0.333 F   0
   17   21   18   104.000 113.702   0.182 F   0
   18   19   17   109.500 112.516   0.307 F   0
   18   22   17   109.500 108.962   0.253 F   0
   18   22   19   109.500 110.764   0.251 F   0
   18   23   17   109.500 110.516   0.253 F   0
   18   23   19   109.500 107.939   0.251 F   0
   18   23   22   108.600 105.940   0.209 F   0
   19   20   18   120.000 119.735   0.178 F   0
   19   24   18   120.000 117.667   0.242 F   0
   19   24   20   120.000 122.594   0.176 F   0
   24   25   19   115.000 121.403   0.409 F   0
   24   28   19   115.000 120.933   0.333 F   0
   24   28   25   104.000 114.566   0.182 F   0
   25   26   24   109.500 110.491   0.307 F   0
   25   29   24   109.500 109.536   0.253 F   0
   25   29   26   109.500 111.468   0.251 F   0
   25   30   24   109.500 107.683   0.253 F   0
   25   30   26   109.500 108.827   0.251 F   0
   25   30   29   108.600 108.739   0.209 F   0
   26   27   25   120.000 118.205   0.177 F   0
   26   31   25   120.000 121.606   0.241 F   0
   26   31   27   120.000 120.172   0.174 F   0
   31   32   26   113.000 126.992   0.042 F   0
   31   33   26   113.000 118.958   0.211 F   0
   31   33   32   113.000 113.990   0.105 F   0
   32   34   31   120.000 109.955   0.204 F   0
   32   35   31   120.000 108.612   0.204 F   0
   32   35   34   120.000 108.076   0.167 F   0
 torsion atoms        nrot   rings    phi0    phi      FC
    3    1    4    2   2      0     180.000  19.645   0.765
    3    1    7    2   2      0     180.000 162.872   1.135
    4    3    5    1   3      0     180.000 105.593   0.024
    4    3    5    7   3      0     180.000 109.517   0.032
    4    3    8    1   3      0     180.000  16.625   0.034
    4    3    8    7   3      0     180.000 128.265   0.045
    4    3    9    1   3      0     180.000 129.545   0.034
    4    3    9    7   3      0     180.000  15.345   0.045
    5    4    6    3   3      0     180.000  50.229   0.066
    5    4    6    8   3      0     180.000 170.755   0.115
    5    4    6    9   3      0     180.000  74.761   0.115
    5    4   10    3   3      0     180.000 130.979   0.041
    5    4   10    8   3      0     180.000  10.454   0.072
    5    4   10    9   3      0     180.000 104.030   0.072
   10    5   11    4   2      0     180.000 176.553   0.615
   10    5   11    6   2      0     180.000   2.209   0.833
   10    5   14    4   2      0     180.000  17.734   0.912
   10    5   14    6   2      0     180.000 163.504   1.236
   11   10   12    5   3      0     180.000 103.014   0.022
   11   10   12   14   3      0     180.000  63.564   0.032
   11   10   15    5   3      0     180.000 131.375   0.032
   11   10   15   14   3      0     180.000  62.048   0.045
   11   10   16    5   3      0     180.000  14.478   0.032
   11   10   16   14   3      0     180.000 178.945   0.045
   12   11   13   10   3      0     180.000  43.545   0.066
   12   11   13   15   3      0     180.000 167.592   0.115
   12   11   13   16   3      0     180.000  73.759   0.115
   12   11   17   10   3      0     180.000 136.827   0.041
   12   11   17   15   3      0     180.000  12.780   0.072
   12   11   17   16   3      0     180.000 105.868   0.072
   17   12   18   11   2      0     180.000   4.823   0.614
   17   12   18   13   2      0     180.000 174.800   0.832
   17   12   21   11   2      0     180.000 172.570   0.911
   17   12   21   13   2      0     180.000   7.053   1.235
   18   17   19   12   3      0     180.000 115.935   0.022
   18   17   19   21   3      0     180.000  52.282   0.032
   18   17   22   12   3      0     180.000 120.820   0.032
   18   17   22   21   3      0     180.000  70.963   0.045
   18   17   23   12   3      0     180.000   4.804   0.032
   18   17   23   21   3      0     180.000 173.021   0.045
   19   18   20   17   3      0     180.000  61.159   0.066
   19   18   20   22   3      0     180.000 176.608   0.115
   19   18   20   23   3      0     180.000  61.047   0.115
   19   18   24   17   3      0     180.000 118.200   0.041
   19   18   24   22   3      0     180.000   4.033   0.072
   19   18   24   23   3      0     180.000 119.594   0.072
   24   19   25   18   2      0     180.000 173.380   0.620
   24   19   25   20   2      0     180.000   5.959   0.840
   24   19   28   18   2      0     180.000  14.366   0.920
   24   19   28   20   2      0     180.000 164.973   1.247
   25   24   26   19   3      0     180.000 101.216   0.022
   25   24   26   28   3      0     180.000  59.043   0.032
   25   24   29   19   3      0     180.000 135.611   0.032
   25   24   29   28   3      0     180.000  64.130   0.045
   25   24   30   19   3      0     180.000  17.518   0.032
   25   24   30   28   3      0     180.000 177.777   0.045
   26   25   27   24   3      0     180.000  34.359   0.066
   26   25   27   29   3      0     180.000 156.403   0.115
   26   25   27   30   3      0     180.000  83.676   0.115
   26   25   31   24   3      0     180.000 147.114   0.041
   26   25   31   29   3      0     180.000  25.071   0.072
   26   25   31   30   3      0     180.000  94.850   0.072
   31   26   32   25   2      0     180.000   4.091   0.343
   31   26   32   27   2      0     180.000 177.411   0.465
   31   26   33   25   2      0     180.000 172.908   0.489
   31   26   33   27   2      0     180.000   5.589   0.663
   32   31   34   26   2      0     180.000  88.718   1.385
   32   31   34   33   2      0     180.000  94.156   1.974
   32   31   35   26   2      0     180.000  29.355   1.385
   32   31   35   33   2      0     180.000 147.772   1.974
 out-of-plane atoms          phi0    phi      FC
    3    7    1    4          0.000  31.295   0.133
    5    6   10    4          0.000  -1.114  23.920
   10   14    5   11          0.000  12.236   0.125
   12   13   17   11          0.000  -0.318  23.974
   17   21   12   18          0.000   9.750   0.130
   19   20   24   18          0.000   0.585  24.122
   24   28   19   25          0.000  17.799   0.116
   26   27   31   25          0.000  -1.279  28.543
   31   33   26   32          0.000   2.396  -0.052
   32   34   35   31          0.000  55.773   0.552
          #tors  :   80
          #nmol  :   6
          #optfrag :   6

 GFN-FF setup done.

           ------------------------------------------------- 
          |                   G F N - F F                   |
          |          A general generic force-field          |
          |                  Version 1.0.3                  | 
           ------------------------------------------------- 
      * Solvation model:               ALPB
        Solvent                        water
        Parameter file                 internal GFN-FF/ALPB
        Dielectric constant                8.0200E+01
        Reference state                gsolv [1 M gas/solution]
        Free energy shift                  3.6494E-04 Eh       2.2900E-01 kcal/mol
        Temperature                        2.9815E+02 K
        Density                            1.0000E+00 kg/L
        Solvent mass                       1.8000E+01 g/mol
        Interaction kernel             P16
        Born radius scaling (c1)           1.5056E+00
        Born radii integrator          GBOBC
        Born offset                        0.0000E+00 a0       0.0000E+00 AA
        H-bond correction              true
        Ion screening                  false
        Surface tension                    1.0000E-05 Eh       1.5569E+01 dyn/cm
        Grid points                               230 per atom
          Number of HB bonds (bound hydrogen)     345
          Number of HB bonds (unbound hydrogen)   44
          Number of XB bonds                      0

 E+G (total)                   0 d,  0 h,  0 min,  0.001 sec
 distance/D3 list               ...        0 min,  0.000 sec (  0.278%)
 non bonded repulsion           ...        0 min,  0.000 sec (  2.134%)
 dCN                            ...        0 min,  0.000 sec (  3.116%)
 EEQ energy and q               ...        0 min,  0.000 sec (  6.308%)
 D3                             ...        0 min,  0.000 sec (  7.988%)
 EEQ gradient                   ...        0 min,  0.000 sec (  4.238%)
 bonds                          ...        0 min,  0.000 sec (  0.915%)
 bend and torsion               ...        0 min,  0.000 sec (  3.742%)
 bonded ATM                     ...        0 min,  0.000 sec (  1.528%)
 HB/XB (incl list setup)        ...        0 min,  0.000 sec (  8.742%)
 GBSA                           ...        0 min,  0.000 sec ( 63.156%)

         :::::::::::::::::::::::::::::::::::::::::::::::::::::
         ::                     SUMMARY                     ::
         :::::::::::::::::::::::::::::::::::::::::::::::::::::
         :: total energy              -6.221646672842 Eh    ::
         :: total w/o Gsolv           -6.179650967434 Eh    ::
         :: total w/o Gsasa/hb        -6.216575978498 Eh    ::
         :: gradient norm              0.182984894776 Eh/a0 ::
         ::.................................................::
         :: bond energy               -6.280034730806 Eh    ::
         :: angle energy               0.027617588502 Eh    ::
         :: torsion energy             0.020765591843 Eh    ::
         :: repulsion energy           0.387632684829 Eh    ::
         :: electrostat energy        -0.303383606640 Eh    ::
         :: dispersion energy         -0.023241467402 Eh    ::
         :: HB energy                 -0.000413517899 Eh    ::
         :: XB energy                  0.000000000000 Eh    ::
         :: bonded atm energy         -0.008593509861 Eh    ::
         :: external energy            0.000000000000 Eh    ::
         :: -> Gsolv                  -0.041995705408 Eh    ::
         ::    -> Gborn               -0.036925011065 Eh    ::
         ::    -> Gsasa                0.009564250807 Eh    ::
         ::    -> Ghb                 -0.014999884405 Eh    ::
         ::    -> Gshift               0.000364939255 Eh    ::
         :: add. restraining           0.000000000000 Eh    ::
         :: total charge               0.000000000000 e     ::
         ::.................................................::
         :: atomisation energy         0.000000000000 Eh    ::
         :::::::::::::::::::::::::::::::::::::::::::::::::::::

      ----------------------------------------------------------- 
     |                   =====================                   |
     |                        A N C O P T                        |
     |                   =====================                   |
     |               Approximate Normal Coordinate               |
     |                Rational Function Optimizer                |
      ----------------------------------------------------------- 

          ...................................................
          :                      SETUP                      :
          :.................................................:
          :   optimization level         verytight          :
          :   max. optcycles                    10          :
          :   ANC micro-cycles                  10          :
          :   degrees of freedom                99          :
          :.................................................:
          :   RF solver                   davidson          :
          :   write xtbopt.log                true          :
          :   linear?                        false          :
          :   energy convergence         0.1000000E-06 Eh   :
          :   grad. convergence          0.2000000E-03 Eh/α :
          :   maxmium RF displ.          1.0000000          :
          :   Hlow (freq-cutoff)         0.1000000E-01      :
          :   Hmax (freq-cutoff)         5.0000000          :
          :   S6 in model hess.         20.0000000          :
          ...................................................

generating ANC from model Hessian ...
Using GFN-FF Lindh-Hessian
 Shifting diagonal of input Hessian by    0.0000000000000000     
 Lowest  eigenvalues of input Hessian
    0.000000    0.000000    0.000000    0.000000    0.000000    0.000000
    0.019078    0.020938    0.024814    0.029360    0.051815    0.061202
    0.079328    0.081675    0.087706    0.091663    0.118712    0.128331
 Highest eigenvalues
    3.369591    3.708123    3.837309    3.856219    4.247796    4.359402


........................................................................
.............................. CYCLE    1 ..............................
........................................................................
     iter. time                 ...        0 min,  0.001 sec
 * total energy  :    -6.2216467 Eh     change        0.0000000E+00 Eh
   gradient norm :     0.1829849 Eh/α   predicted     0.0000000E+00 (    NaN%)
   displ. norm   :     0.0956969 α      lambda       -0.1259240E-01
   maximum displ.:     0.0326032 α      in ANC's #89, #42, #41, ...

........................................................................
.............................. CYCLE    2 ..............................
........................................................................
     iter. time                 ...        0 min,  0.001 sec
 * total energy  :    -6.2300269 Eh     change       -0.8380273E-02 Eh
   gradient norm :     0.0662600 Eh/α   predicted    -0.6367564E-02 ( -24.02%)
   displ. norm   :     0.0605715 α      lambda       -0.2809200E-02
   maximum displ.:     0.0199820 α      in ANC's #10, #89, #34, ...

........................................................................
.............................. CYCLE    3 ..............................
........................................................................
     iter. time                 ...        0 min,  0.001 sec
 * total energy  :    -6.2315866 Eh     change       -0.1559644E-02 Eh
   gradient norm :     0.0170744 Eh/α   predicted    -0.1409804E-02 (  -9.61%)
   displ. norm   :     0.0236887 α      lambda       -0.2216532E-03
   maximum displ.:     0.0095427 α      in ANC's #16, #34, #35, ...

........................................................................
.............................. CYCLE    4 ..............................
........................................................................
     iter. time                 ...        0 min,  0.001 sec
 * total energy  :    -6.2317492 Eh     change       -0.1626126E-03 Eh
   gradient norm :     0.0095278 Eh/α   predicted    -0.1158583E-03 ( -28.75%)
   displ. norm   :     0.0228367 α      lambda       -0.1037183E-03
   maximum displ.:     0.0095789 α      in ANC's #1, #35, #16, ...

........................................................................
.............................. CYCLE    5 ..............................
........................................................................
     iter. time                 ...        0 min,  0.000 sec
 * total energy  :    -6.2318101 Eh     change       -0.6088825E-04 Eh
   gradient norm :     0.0035442 Eh/α   predicted    -0.5189766E-04 ( -14.77%)
   displ. norm   :     0.0113994 α      lambda       -0.1493151E-04
   maximum displ.:     0.0071812 α      in ANC's #1, #2, #35, ...

........................................................................
.............................. CYCLE    6 ..............................
........................................................................
     iter. time                 ...        0 min,  0.000 sec
 * total energy  :    -6.2318214 Eh     change       -0.1126714E-04 Eh
   gradient norm :     0.0022790 Eh/α   predicted    -0.7659669E-05 ( -32.02%)
   displ. norm   :     0.0164522 α      lambda       -0.1224522E-04
   maximum displ.:     0.0113631 α      in ANC's #1, #2, #35, ...

........................................................................
.............................. CYCLE    7 ..............................
........................................................................
     iter. time                 ...        0 min,  0.000 sec
 * total energy  :    -6.2318293 Eh     change       -0.7902603E-05 Eh
   gradient norm :     0.0019083 Eh/α   predicted    -0.6132493E-05 ( -22.40%)
   displ. norm   :     0.0176481 α      lambda       -0.4191294E-05
   maximum displ.:     0.0130952 α      in ANC's #1, #2, #3, ...

........................................................................
.............................. CYCLE    8 ..............................
........................................................................
     iter. time                 ...        0 min,  0.000 sec
 * total energy  :    -6.2318330 Eh     change       -0.3750751E-05 Eh
   gradient norm :     0.0014417 Eh/α   predicted    -0.2115805E-05 ( -43.59%)
   displ. norm   :     0.0108477 α      lambda       -0.2031471E-05
   maximum displ.:     0.0084441 α      in ANC's #1, #2, #3, ...

........................................................................
.............................. CYCLE    9 ..............................
........................................................................
     iter. time                 ...        0 min,  0.001 sec
 * total energy  :    -6.2318352 Eh     change       -0.2200552E-05 Eh
   gradient norm :     0.0007128 Eh/α   predicted    -0.1020683E-05 ( -53.62%)
   displ. norm   :     0.0158586 α      lambda       -0.1634721E-05
   maximum displ.:     0.0124989 α      in ANC's #1, #2, #3, ...

........................................................................
.............................. CYCLE   10 ..............................
........................................................................
     iter. time                 ...        0 min,  0.001 sec
 * total energy  :    -6.2318370 Eh     change       -0.1755984E-05 Eh
   gradient norm :     0.0008754 Eh/α   predicted    -0.8251058E-06 ( -53.01%)
   displ. norm   :     0.0167781 α      lambda       -0.1073524E-05
   maximum displ.:     0.0133700 α      in ANC's #1, #2, #3, ...

   *** FAILED TO CONVERGE GEOMETRY OPTIMIZATION IN 10 ITERATIONS ***


 ANCopt (total)                0 d,  0 h,  0 min,  0.008 sec
 optimizer setup                ...        0 min,  0.000 sec (  0.728%)
 model hessian                  ...        0 min,  0.000 sec (  2.944%)
 ANC generation                 ...        0 min,  0.001 sec (  8.144%)
 coordinate transformation      ...        0 min,  0.000 sec (  0.445%)
 single point calculation       ...        0 min,  0.006 sec ( 75.569%)
 optimization log               ...        0 min,  0.000 sec (  5.816%)
 hessian update                 ...        0 min,  0.000 sec (  1.084%)
 rational function              ...        0 min,  0.000 sec (  2.936%)

================
 final structure:
================
ATOM      1  C   VAL A   8      -8.907 -11.740   5.362  1.00  0.00           C  
ATOM      2  O   VAL A   8      -7.999 -10.974   5.582  1.00  0.00           O  
ATOM      3  N   GLY A   9      -8.770 -12.871   4.627  1.00  0.00           N  
ATOM      4  CA  GLY A   9      -7.444 -13.462   4.471  1.00  0.00           C  
ATOM      5  C   GLY A   9      -6.824 -13.284   3.139  1.00  0.00           C  
ATOM      6  O   GLY A   9      -7.419 -13.566   2.122  1.00  0.00           O  
ATOM      7  H   GLY A   9      -9.513 -13.578   4.681  1.00  0.00           H  
ATOM      8  HA2 GLY A   9      -6.806 -13.006   5.238  1.00  0.00           H  
ATOM      9  HA3 GLY A   9      -7.487 -14.533   4.707  1.00  0.00           H  
ATOM     10  N   GLY A  10      -5.527 -12.835   3.151  1.00  0.00           N  
ATOM     11  CA  GLY A  10      -4.804 -12.692   1.930  1.00  0.00           C  
ATOM     12  C   GLY A  10      -4.718 -11.247   1.509  1.00  0.00           C  
ATOM     13  O   GLY A  10      -5.724 -10.573   1.587  1.00  0.00           O  
ATOM     14  H   GLY A  10      -5.119 -12.379   3.970  1.00  0.00           H  
ATOM     15  HA2 GLY A  10      -3.824 -13.157   2.046  1.00  0.00           H  
ATOM     16  HA3 GLY A  10      -5.346 -13.253   1.157  1.00  0.00           H  
ATOM     17  N   GLY A  11      -3.556 -10.677   1.022  1.00  0.00           N  
ATOM     18  CA  GLY A  11      -2.287 -11.356   0.782  1.00  0.00           C  
ATOM     19  C   GLY A  11      -1.901 -11.332  -0.664  1.00  0.00           C  
ATOM     20  O   GLY A  11      -2.598 -11.894  -1.480  1.00  0.00           O  
ATOM     21  H   GLY A  11      -3.604  -9.739   0.630  1.00  0.00           H  
ATOM     22  HA2 GLY A  11      -1.515 -10.883   1.397  1.00  0.00           H  
ATOM     23  HA3 GLY A  11      -2.342 -12.397   1.105  1.00  0.00           H  
ATOM     24  N   GLY A  12      -0.744 -10.674  -1.006  1.00  0.00           N  
ATOM     25  CA  GLY A  12      -0.383 -10.468  -2.391  1.00  0.00           C  
ATOM     26  C   GLY A  12      -0.701  -9.054  -2.828  1.00  0.00           C  
ATOM     27  O   GLY A  12      -1.664  -8.509  -2.352  1.00  0.00           O  
ATOM     28  H   GLY A  12      -0.279 -10.049  -0.348  1.00  0.00           H  
ATOM     29  HA2 GLY A  12       0.675 -10.710  -2.519  1.00  0.00           H  
ATOM     30  HA3 GLY A  12      -0.966 -11.171  -2.994  1.00  0.00           H  
ATOM     31  N   GLY A  13       0.111  -8.426  -3.770  1.00  0.00           N  
ATOM     32  CA  GLY A  13       1.297  -8.867  -4.350  1.00  0.00           C  
ATOM     33  H   GLY A  13      -0.195  -7.482  -4.060  1.00  0.00           H  
ATOM     34  HA2 GLY A  13       2.173  -8.619  -3.761  1.00  0.00           H  
ATOM     35  HA3 GLY A  13       1.279  -9.968  -4.414  1.00  0.00           H  
END

 Bond Distances (Angstroems)
 ---------------------------
C1-O2=1.2084         C1-N3=1.3560         O2-C1=1.2084         N3-C1=1.3560         N3-C4=1.4603         N3-H7=1.0267         
C4-N3=1.4603         C4-C5=1.4799         C4-H8=1.0968         C4-H9=1.0978         C5-C4=1.4799         C5-O6=1.2116         
C5-N10=1.3728        O6-C5=1.2116         H7-N3=1.0267         H8-C4=1.0968         H9-C4=1.0978         N10-C5=1.3728        
N10-C11=1.4260       N10-H14=1.0220       C11-N10=1.4260       C11-C12=1.5075       C11-H15=1.0902       C11-H16=1.0982       
C12-C11=1.5075       C12-O13=1.2135       C12-N17=1.3837       O13-C12=1.2135       H14-N10=1.0220       H15-C11=1.0902       
H16-C11=1.0982       N17-C12=1.3837       N17-C18=1.4590       N17-H21=1.0171       C18-N17=1.4590       C18-C19=1.4966       
C18-H22=1.0948       C18-H23=1.0905       C19-C18=1.4966       C19-O20=1.2119       C19-N24=1.3747       O20-C19=1.2119       
H21-N17=1.0171       H22-C18=1.0948       H23-C18=1.0905       N24-C19=1.3747       N24-C25=1.4458       N24-H28=1.0198       
C25-N24=1.4458       C25-C26=1.5132       C25-H29=1.0925       C25-H30=1.0943       C26-C25=1.5132       C26-O27=1.2051       
C26-N31=1.3930       O27-C26=1.2051       H28-N24=1.0198       H29-C25=1.0925       H30-C25=1.0943       N31-C26=1.3930       
N31-C32=1.3923       N31-H33=1.0333       C32-N31=1.3923       C32-H34=1.0843       C32-H35=1.1027       H33-N31=1.0333       
H34-C32=1.0843       H35-C32=1.1027       
 C  H  Rav=1.0942 sigma=0.0049  Rmin=1.0843  Rmax=1.1027    10
 C  C  Rav=1.4993 sigma=0.0127  Rmin=1.4799  Rmax=1.5132     4
 N  H  Rav=1.0238 sigma=0.0057  Rmin=1.0171  Rmax=1.0333     5
 N  C  Rav=1.4063 sigma=0.0363  Rmin=1.3560  Rmax=1.4603    10
 O  C  Rav=1.2101 sigma=0.0030  Rmin=1.2051  Rmax=1.2135     5

 selected bond angles (degree)
 --------------------
N3-C1-O2=123.54                C4-N3-C1=119.12                H7-N3-C1=118.21                H7-N3-C4=112.61                
C5-C4-N3=115.32                H8-C4-N3=106.61                H8-C4-C5=109.61                H9-C4-N3=109.62                
H9-C4-C5=109.11                H9-C4-H8=106.16                O6-C5-C4=121.46                N10-C5-C4=115.31               
N10-C5-O6=123.18               C11-N10-C5=120.30              H14-N10-C5=121.97              H14-N10-C11=116.07             

 selected dihedral angles (degree)
 ---------------------------------
C4-N3-C1-O2= 22.01            H7-N3-C1-O2=164.97            C5-C4-N3-C1=253.72            C5-C4-N3-H7=108.82            
H8-C4-N3-C1= 15.63            H8-C4-N3-H7=230.73            H9-C4-N3-C1=130.13            H9-C4-N3-H7=345.23            
O6-C5-C4-N3=308.98            O6-C5-C4-H8=188.70            O6-C5-C4-H9= 72.84            N10-C5-C4-N3=131.58           
N10-C5-C4-H8= 11.30           N10-C5-C4-H9=255.44           C11-N10-C5-C4=176.70          C11-N10-C5-O6=359.35          
H14-N10-C5-C4=341.42          H14-N10-C5-O6=164.07          
           -------------------------------------------------
          |                Final Singlepoint                |
           -------------------------------------------------
         :::::::::::::::::::::::::::::::::::::::::::::::::::::
         ::                     SUMMARY                     ::
         :::::::::::::::::::::::::::::::::::::::::::::::::::::
         :: total energy              -6.231838214973 Eh    ::
         :: total w/o Gsolv           -6.190323300380 Eh    ::
         :: total w/o Gsasa/hb        -6.227002868179 Eh    ::
         :: gradient norm              0.000798983528 Eh/a0 ::
         ::.................................................::
         :: bond energy               -6.299167682120 Eh    ::
         :: angle energy               0.026179509422 Eh    ::
         :: torsion energy             0.023199991683 Eh    ::
         :: repulsion energy           0.390989801486 Eh    ::
         :: electrostat energy        -0.304218788560 Eh    ::
         :: dispersion energy         -0.023236905590 Eh    ::
         :: HB energy                 -0.000438913754 Eh    ::
         :: XB energy                  0.000000000000 Eh    ::
         :: bonded atm energy         -0.008424123986 Eh    ::
         :: external energy            0.000000000000 Eh    ::
         :: -> Gsolv                  -0.041514914593 Eh    ::
         ::    -> Gborn               -0.036679567799 Eh    ::
         ::    -> Gsasa                0.009626836732 Eh    ::
         ::    -> Ghb                 -0.014827122781 Eh    ::
         ::    -> Gshift               0.000364939255 Eh    ::
         :: add. restraining           0.004793811041 Eh    ::
         :: total charge              -0.000000000000 e     ::
         ::.................................................::
         :: atomisation energy         0.000000000000 Eh    ::
         :::::::::::::::::::::::::::::::::::::::::::::::::::::

           -------------------------------------------------
          |                Property Printout                |
           -------------------------------------------------
           -------------------------------------------------
          |                Geometry Summary                 |
           -------------------------------------------------

      molecular mass/u    :      285.2570109
   center of mass at/Å    :       -4.0280472     -11.2210840       0.8210069
  moments of inertia/u·Å² :        0.4307452E+03   0.5785046E+04   0.5955313E+04
rotational constants/cm⁻¹ :        0.3913597E-01   0.2914001E-02   0.2830688E-02

 * 29 selected distances

     #   Z          #   Z                                           value/Å
     1   6  C       3   7  N                                      1.3559857
     3   7  N       4   6  C                                      1.4603227
     4   6  C       5   6  C                                      1.4798750 (max)
     5   6  C       6   8  O                                      1.2116151
     3   7  N       7   1  H                                      1.0266675
     4   6  C       8   1  H                                      1.0967682
     4   6  C       9   1  H                                      1.0978009
     5   6  C      10   7  N                                      1.3727809
    10   7  N      11   6  C                                      1.4259511
    12   6  C      13   8  O                                      1.2134899
    10   7  N      14   1  H                                      1.0219755
    11   6  C      15   1  H                                      1.0902286
    11   6  C      16   1  H                                      1.0981982
    12   6  C      17   7  N                                      1.3837367
    17   7  N      18   6  C                                      1.4589507
    19   6  C      20   8  O                                      1.2118773
    17   7  N      21   1  H                                      1.0170769 (min)
    18   6  C      22   1  H                                      1.0948284
    18   6  C      23   1  H                                      1.0905208
    19   6  C      24   7  N                                      1.3746621
    24   7  N      25   6  C                                      1.4458165
    26   6  C      27   8  O                                      1.2050751
    24   7  N      28   1  H                                      1.0198323
    25   6  C      29   1  H                                      1.0925351
    25   6  C      30   1  H                                      1.0943375
    26   6  C      31   7  N                                      1.3930068
    31   7  N      32   6  C                                      1.3922688
    31   7  N      33   1  H                                      1.0333014
    32   6  C      34   1  H                                      1.0843293

 * 5 distinct bonds (by element types)

   Z      Z             #   av. dist./Å        max./Å        min./Å
   1 H    6 C           9     1.0932830     1.0981982     1.0843293
   6 C    6 C           1     1.4798750     1.4798750     1.4798750
   1 H    7 N           5     1.0237707     1.0333014     1.0170769
   6 C    7 N          10     1.4063482     1.4603227     1.3559857
   6 C    8 O           4     1.2105144     1.2134899     1.2050751


optimized geometry written to: xtbopt.pdb


           -------------------------------------------------
          | TOTAL ENERGY               -6.231838214973 Eh   |
          | GRADIENT NORM               0.000798983528 Eh/α |
           -------------------------------------------------
########################################################################
[WARNING] Runtime exception occurred
-1- gfnff_setup: Could not read topology file.
########################################################################

------------------------------------------------------------------------
 unit  open   action     filename
   10 false : read       xtb_settings.inp
   10 false : read       substructure_8.pdb
   10 false : read       xtb_settings.inp
   10 false : written    gfnff_topo
   10 false : written    gfnff_adjacency
   10 false : written    gfnff_charges
   10 false : deleted    .xtboptok
   10 false : replaced   xtbopt.log
   11 false : created    .xtboptok
   11 false : replaced   gfnff_charges
   10 false : replaced   xtbopt.pdb

------------------------------------------------------------------------
 * finished run on 2025/05/27 at 09:37:34.173     
------------------------------------------------------------------------
 total:
 * wall-time:     0 d,  0 h,  0 min,  0.013 sec
 *  cpu-time:     0 d,  0 h,  0 min,  0.013 sec
 * ratio c/w:     0.998 speedup
 SCF:
 * wall-time:     0 d,  0 h,  0 min,  0.001 sec
 *  cpu-time:     0 d,  0 h,  0 min,  0.001 sec
 * ratio c/w:     0.998 speedup
 ANC optimizer:
 * wall-time:     0 d,  0 h,  0 min,  0.009 sec
 *  cpu-time:     0 d,  0 h,  0 min,  0.009 sec
 * ratio c/w:     0.997 speedup

