35
 energy: -6.225455956141 gnorm: 0.174677163995 xtb: 6.6.1 (8d0f1dd)
 C          -8.87600000000000      -11.75000000000000        5.47300000000000
 O          -7.93700000000000      -11.21900000000000        6.03100000000000
 N          -8.67600000000000      -12.67600000000000        4.45300000000000
 C          -7.45100000000000      -13.46200000000000        4.45500000000000
 C          -6.72200000000000      -13.48300000000000        3.17400000000000
 O          -7.09600000000000      -14.18000000000000        2.25400000000000
 H          -9.47700000000000      -13.18300000000000        4.07400000000000
 H          -6.80700000000000      -13.05200000000000        5.24600000000000
 H          -7.68800000000000      -14.49000000000000        4.76400000000000
 N          -5.60200000000000      -12.69300000000000        3.11100000000000
 C          -4.79400000000000      -12.69900000000000        1.94100000000000
 C          -4.78500000000000      -11.34900000000000        1.26600000000000
 O          -5.84600000000000      -10.77500000000000        1.13000000000000
 H          -5.43600000000000      -11.93200000000000        3.77400000000000
 H          -3.79800000000000      -13.04300000000000        2.19900000000000
 H          -5.22800000000000      -13.43200000000000        1.24100000000000
 N          -3.62600000000000      -10.76800000000000        0.78300000000000
 C          -2.28900000000000      -11.34700000000000        0.78200000000000
 C          -1.72900000000000      -11.45300000000000       -0.60300000000000
 O          -2.12100000000000      -12.33400000000000       -1.33700000000000
 H          -3.70500000000000       -9.91700000000000        0.23100000000000
 H          -1.63500000000000      -10.74600000000000        1.42000000000000
 H          -2.30400000000000      -12.35400000000000        1.21500000000000
 N          -0.79000000000000      -10.52800000000000       -1.00200000000000
 C          -0.37300000000000      -10.47700000000000       -2.38800000000000
 C          -0.80600000000000       -9.16900000000000       -3.01200000000000
 O          -1.89800000000000       -8.73100000000000       -2.71300000000000
 H          -0.63600000000000       -9.66900000000000       -0.47200000000000
 H           0.71100000000000      -10.59800000000000       -2.42600000000000
 H          -0.84100000000000      -11.30500000000000       -2.91000000000000
 N          -0.00700000000000       -8.49500000000000       -3.91700000000000
 C           1.32400000000000       -8.88700000000000       -4.36200000000000
 H          -0.38300000000000       -7.68200000000000       -4.39700000000000
 H           2.07300000000000       -8.44500000000000       -3.72900000000000
 H           1.41500000000000       -9.98700000000000       -4.29100000000000
35
 energy: -6.233125179632 gnorm: 0.062142282422 xtb: 6.6.1 (8d0f1dd)
 C          -8.87492198781715      -11.75599274341065        5.46386746238971
 O          -7.94878735866804      -11.21505870753232        6.02572154897345
 N          -8.67607700542480      -12.67188875131815        4.45838924320714
 C          -7.45090773571161      -13.46119532230686        4.46089942408305
 C          -6.72209246634788      -13.48184077114484        3.17489543462923
 O          -7.09528662406299      -14.18018081162142        2.25576369574748
 H          -9.47656511024190      -13.17978373303803        4.07606034912157
 H          -6.80471376322218      -13.05233258046340        5.24759877017233
 H          -7.68668038122793      -14.48945342816703        4.76553100640508
 N          -5.60228558260157      -12.69225949425410        3.11068290332607
 C          -4.79557259496847      -12.69824533743015        1.93654019104428
 C          -4.78544233565585      -11.35003832568599        1.26447828756233
 O          -5.84595855385716      -10.77529084664759        1.12980037969917
 H          -5.43569415116940      -11.93153883619528        3.77392247527983
 H          -3.79759146483208      -13.04360627462937        2.19930882944325
 H          -5.22793711816709      -13.43228569509048        1.24158646134238
 N          -3.62531235677075      -10.76870478254916        0.78326498191764
 C          -2.28736549440673      -11.35060934906334        0.78297889835127
 C          -1.72840184629763      -11.45378131365495       -0.60253153490781
 O          -2.12030172600040      -12.33483244221283       -1.33688728605582
 H          -3.70316134616734       -9.91716223005937        0.23227264486707
 H          -1.63356616079465      -10.74841830597616        1.42141343567862
 H          -2.30377981351823      -12.35446247969693        1.21429363303629
 N          -0.78894790140746      -10.52993907428272       -1.00120849185606
 C          -0.37298575962711      -10.47534852801186       -2.38613555305562
 C          -0.80895210055157       -9.17463411511234       -3.01422220067459
 O          -1.89624557168190       -8.73444313792778       -2.71537082509492
 H          -0.63474692131774       -9.67124356595245       -0.47110111364183
 H           0.71190644389276      -10.59987741293377       -2.42588577673139
 H          -0.83996479371010      -11.30903809526300       -2.90995074463941
 N           0.01127251837631       -8.50492464302808       -3.92124764201383
 C           1.30229112904625       -8.87788962529560       -4.35566079400583
 H          -0.37381853067277       -7.67963578656737       -4.38590507506553
 H           2.07280571179619       -8.44335639645829       -3.73462461816404
 H           1.40678875378894       -9.97070705701834       -4.30053840037055
35
 energy: -6.234450973553 gnorm: 0.015968535370 xtb: 6.6.1 (8d0f1dd)
 C          -8.87250052258127      -11.76218283190343        5.46207623484912
 O          -7.95443653948552      -11.21001537873004        6.02259493237927
 N          -8.67631415483470      -12.66906000334723        4.46163721065463
 C          -7.45008817313145      -13.46085405338249        4.46356243738593
 C          -6.72190794884324      -13.48146670275225        3.17505932187628
 O          -7.09405811367764      -14.18121200943013        2.25689744418235
 H          -9.47613553640019      -13.17911574591135        4.07678474914544
 H          -6.80331517257395      -13.05226687827599        5.24832133380337
 H          -7.68601162804521      -14.48959044259549        4.76562908892154
 N          -5.60217323146065      -12.69232511137806        3.11084929275795
 C          -4.79697944052052      -12.69798540019596        1.93368642597459
 C          -4.78597356086014      -11.35080456911417        1.26359416666256
 O          -5.84613548354910      -10.77547463314457        1.12987955909835
 H          -5.43519289427253      -11.93191597719964        3.77426381387424
 H          -3.79751955974909      -13.04323249504442        2.19995153138839
 H          -5.22750817541772      -13.43323536359215        1.24199531078715
 N          -3.62550127575823      -10.76879653384162        0.78319135803067
 C          -2.28654499246566      -11.35243937057565        0.78309133171115
 C          -1.72874995683471      -11.45326768189494       -0.60287008669161
 O          -2.12041319162765      -12.33469972189262       -1.33719907245310
 H          -3.70313722031436       -9.91708179206959        0.23271205688512
 H          -1.63332848705224      -10.74858304526023        1.42132633839186
 H          -2.30373236555731      -12.35432151416014        1.21375688077562
 N          -0.78929655645107      -10.53023128229224       -1.00174111478701
 C          -0.37450686978338      -10.47197330162081       -2.38602919876747
 C          -0.81526614072091       -9.17545183274581       -3.01727226170927
 O          -1.89857713163759       -8.73482958526729       -2.71740401514817
 H          -0.63513325564621       -9.67152683113597       -0.47155473431923
 H           0.71079960290686      -10.60088532635168       -2.42723424139044
 H          -0.84006725247298      -11.30972781252270       -2.91025918470221
 N           0.02109293442820       -8.51410806032564       -3.92696513846783
 C           1.29443358291346       -8.87361456465104       -4.35465716515539
 H          -0.37076550362466       -7.67359327688402       -4.37613274858525
 H           2.07665309516411       -8.44844978284476       -3.73542840310645
 H           1.40929111993726       -9.96568108766588       -4.29811345425216
35
 energy: -6.234587172787 gnorm: 0.008756219712 xtb: 6.6.1 (8d0f1dd)
 C          -8.87117436493861      -11.76433765226153        5.46352158391807
 O          -7.95472236884953      -11.20828112081837        6.02212306202296
 N          -8.67653268923738      -12.66881225824855        4.46172935969697
 C          -7.44968668634600      -13.46119538723512        4.46358063170112
 C          -6.72183995085404      -13.48156524262312        3.17494851731940
 O          -7.09358170106891      -14.18174971505524        2.25711885735419
 H          -9.47614994666753      -13.17938050578214        4.07621172597167
 H          -6.80323752791789      -13.05223260356786        5.24835514401794
 H          -7.68596069370296      -14.48990793364721        4.76545236026760
 N          -5.60189022157252      -12.69257377305292        3.11110553003543
 C          -4.79734202957980      -12.69799984526162        1.93320432391844
 C          -4.78605099609060      -11.35090264286813        1.26354380453064
 O          -5.84612472312129      -10.77538568042729        1.13007921153469
 H          -5.43481317516732      -11.93230849497538        3.77452921750219
 H          -3.79751876293860      -13.04291372833742        2.20008717860618
 H          -5.22736696466459      -13.43350445182681        1.24197391750376
 N          -3.62583167147436      -10.76842832063016        0.78313125926236
 C          -2.28657754926728      -11.35244052507819        0.78296589956429
 C          -1.72918119859350      -11.45263973618236       -0.60305759686404
 O          -2.12080276738596      -12.33425157429507       -1.33728728813201
 H          -3.70375374816209       -9.91680576125887        0.23261313043621
 H          -1.63375432643741      -10.74779626784555        1.42089428140397
 H          -2.30401355871052      -12.35408883927100        1.21378512140489
 N          -0.78966228243156      -10.52996949353781       -1.00208550811437
 C          -0.37512830714279      -10.47031237095267       -2.38619615426839
 C          -0.81789723891878       -9.17361633963538       -3.01830649717338
 O          -1.89951810863932       -8.73360892048457       -2.71698088986874
 H          -0.63546525884578       -9.67121438181761       -0.47184730204886
 H           0.71010835408125      -10.60120950345497       -2.42782452797221
 H          -0.84025913201631      -11.30904828506594       -2.91024022991215
 N           0.02128260091046       -8.51823027303043       -3.93011306058826
 C           1.29501331208326       -8.87378993089776       -4.35586336882956
 H          -0.37028069457970       -7.67154987583415       -4.37342924471880
 H           2.07817553965757       -8.45135378913523       -3.73498452833358
 H           1.41253883859039       -9.96659477560357       -4.29473792114863
35
 energy: -6.234633286976 gnorm: 0.002929476447 xtb: 6.6.1 (8d0f1dd)
 C          -8.86998502707690      -11.76576534495327        5.46520501650017
 O          -7.95431020133927      -11.20740993407177        6.02210449089443
 N          -8.67672942594540      -12.66899145531763        4.46138360208441
 C          -7.44946403674471      -13.46169632966249        4.46325485442318
 C          -6.72191356268384      -13.48163281449221        3.17474113869576
 O          -7.09345222370117      -14.18198806978508        2.25706729599796
 H          -9.47634850709408      -13.17931602140395        4.07555746445818
 H          -6.80330752092572      -13.05238461105217        5.24824233326871
 H          -7.68605506058313      -14.49022042406055        4.76519128868562
 N          -5.60161978259237      -12.69283427860886        3.11129394447126
 C          -4.79751212338310      -12.69808795890630        1.93306158016381
 C          -4.78599445730729      -11.35092065837737        1.26363257891989
 O          -5.84603419756184      -10.77526457171085        1.13028615309914
 H          -5.43450606336371      -11.93269800120699        3.77471051756856
 H          -3.79755478765141      -13.04282040716225        2.20003390841767
 H          -5.22738768057406      -13.43357407627380        1.24181476427658
 N          -3.62615236406102      -10.76792801836060        0.78308989874664
 C          -2.28670828160664      -11.35213141194731        0.78291335094842
 C          -1.72948735403617      -11.45214179532061       -0.60302938508806
 O          -2.12108418503690      -12.33394310017356       -1.33710260342116
 H          -3.70450602036377       -9.91651857185988        0.23231440789969
 H          -1.63433677853119      -10.74667235729231        1.42045157883832
 H          -2.30431227892110      -12.35374247823493        1.21412470755188
 N          -0.78984668940568      -10.52982815015656       -1.00223188668300
 C          -0.37532591966194      -10.46922871506742       -2.38613947155847
 C          -0.81944801366365       -9.17147336013553       -3.01888342508780
 O          -1.89955735392617       -8.73210181040167       -2.71558389387735
 H          -0.63557529946467       -9.67101731904263       -0.47196903965571
 H           0.70976260647160      -10.60145629106868       -2.42807914537634
 H          -0.84022428332514      -11.30850079048049       -2.91001224595094
 N           0.01993422041160       -8.52227758143937       -3.93342382524765
 C           1.29590096631293       -8.87425062541328       -4.35691969580666
 H          -0.36945111644065       -7.67081499685392       -4.37209894237979
 H           2.07869081734995       -8.45271672046028       -3.73470638761279
 H           1.41490198642659       -9.96765094924539       -4.29229492816456
35
 energy: -6.234639283539 gnorm: 0.001543329935 xtb: 6.6.1 (8d0f1dd)
 C          -8.86982226527385      -11.76589713033264        5.46546466615595
 O          -7.95423351414402      -11.20739530092541        6.02210942128917
 N          -8.67674566644172      -12.66920735901255        4.46122649512729
 C          -7.44944616949205      -13.46183914336893        4.46317214224259
 C          -6.72194506067375      -13.48162416323968        3.17470461446405
 O          -7.09350520588733      -14.18195092092296        2.25701000673825
 H          -9.47644459479304      -13.17915902179135        4.07543011467424
 H          -6.80332594317306      -13.05244481677772        5.24821132793934
 H          -7.68605803255983      -14.49026737431245        4.76517334971215
 N          -5.60155534513615      -12.69288012280071        3.11131826423138
 C          -4.79746963861883      -12.69813517928209        1.93312958208043
 C          -4.78592420051166      -11.35093867890728        1.26368560534707
 O          -5.84597711789858      -10.77524681670246        1.13033289727041
 H          -5.43449036545907      -11.93273817183510        3.77471206843330
 H          -3.79755271752970      -13.04289503192604        2.19997894998102
 H          -5.22742564561550      -13.43353819079223        1.24176302000044
 N          -3.62621921054595      -10.76776390575311        0.78305828623215
 C          -2.28674588783285      -11.35201059439089        0.78293291877312
 C          -1.72949453134108      -11.45215651046066       -0.60294461558790
 O          -2.12111766971737      -12.33400583107808       -1.33694976044212
 H          -3.70476866647388       -9.91652196298696        0.23203665203952
 H          -1.63453791659676      -10.74624104094890        1.42030189364674
 H          -2.30435330723957      -12.35360765609610        1.21436043208254
 N          -0.78981873223453      -10.52993340976310       -1.00223906999030
 C          -0.37527305369476      -10.46921998838830       -2.38606258329903
 C          -0.81952043262218       -9.17095723057196       -3.01894639158410
 O          -1.89909732533681       -8.73144468850357       -2.71463218480164
 H          -0.63544735584710       -9.67114611687125       -0.47193376997260
 H           0.70976323937275      -10.60148990761760       -2.42809939917494
 H          -0.84020694339584      -11.30846178271570       -2.90996147499909
 N           0.01908595653579       -8.52356878377293       -3.93463860543766
 C           1.29603983892927       -8.87432688276869       -4.35693706198936
 H          -0.36886620024350       -7.67080829423545       -4.37184682926723
 H           2.07850047085368       -8.45240891042913       -3.73469900608554
 H           1.41499921063883       -9.96776907971802       -4.29222195582964
35
 energy: -6.234642230243 gnorm: 0.001426613162 xtb: 6.6.1 (8d0f1dd)
 C          -8.86983995526239      -11.76582048799097        5.46543134511038
 O          -7.95425552223222      -11.20754023178517        6.02210605108276
 N          -8.67667401981178      -12.66950546886620        4.46117747507807
 C          -7.44945051631550      -13.46191667771141        4.46317018936532
 C          -6.72196538209724      -13.48159938009526        3.17470287404215
 O          -7.09364380591006      -14.18180899919884        2.25691993444757
 H          -9.47654748666707      -13.17885984850096        4.07542457408420
 H          -6.80329470471191      -13.05253165293039        5.24821024021070
 H          -7.68605312715845      -14.49027928232515        4.76517783074974
 N          -5.60153027511176      -12.69290645686215        3.11129696110278
 C          -4.79737779114668      -12.69819103246795        1.93323575158883
 C          -4.78583617610241      -11.35098025082209        1.26374055307497
 O          -5.84590455789403      -10.77522821597278        1.13037790231579
 H          -5.43454306319450      -11.93272185102462        3.77467070588910
 H          -3.79755130648494      -13.04305210265481        2.19989438527864
 H          -5.22749259718348      -13.43347108803031        1.24171276113047
 N          -3.62625966142379      -10.76759821318389        0.78299008842449
 C          -2.28675882025837      -11.35191996793797        0.78298559888302
 C          -1.72941134152138      -11.45234338329819       -0.60281434675919
 O          -2.12103915884968      -12.33426677349851       -1.33672527730280
 H          -3.70509014301866       -9.91670805466014        0.23144328612263
 H          -1.63476224608313      -10.74570970723881        1.42012392097019
 H          -2.30428379580555      -12.35343094290260        1.21471787928760
 N          -0.78975592460735      -10.53014242991854       -1.00226648004206
 C          -0.37518536240087      -10.46946250385814       -2.38597787289449
 C          -0.81943290992694       -9.17082896437486       -3.01907010989285
 O          -1.89819952789673       -8.73044907429242       -2.71314800564640
 H          -0.63518293184721       -9.67145198090551       -0.47183797074643
 H           0.70982621993611      -10.60143868089987       -2.42807082116904
 H          -0.84024048389076      -11.30851787916692       -2.90997905711121
 N           0.01782471535638       -8.52515186159369       -3.93642959591327
 C           1.29611853594506       -8.87430213418605       -4.35661984674319
 H          -0.36807520156322       -7.67065322709017       -4.37139409468833
 H           2.07809441237176       -8.45153719403536       -3.73468673579250
 H           1.41477391276877       -9.96767399971928       -4.29249009353765
35
 energy: -6.234642942324 gnorm: 0.000453726787 xtb: 6.6.1 (8d0f1dd)
 C          -8.86991689887052      -11.76575009640493        5.46531974723861
 O          -7.95426354781111      -11.20757032555878        6.02212872726259
 N          -8.67663862376390      -12.66942244501838        4.46129233697440
 C          -7.44946269096213      -13.46184206893086        4.46321060204261
 C          -6.72195741464817      -13.48160708649237        3.17471580097983
 O          -7.09365938048894      -14.18178866045910        2.25692048870659
 H          -9.47651784397198      -13.17887349544466        4.07548684460657
 H          -6.80327901592386      -13.05252981084453        5.24822606157747
 H          -7.68607956280572      -14.49026381452819        4.76515783031195
 N          -5.60156771863495      -12.69289764250632        3.11127805584164
 C          -4.79740099952555      -12.69817065598436        1.93320194572605
 C          -4.78586492791646      -11.35097307373411        1.26372448087843
 O          -5.84591520604344      -10.77520759754449        1.13038592080507
 H          -5.43454677330039      -11.93271828268691        3.77467168522937
 H          -3.79756273928960      -13.04303778152812        2.19990262588791
 H          -5.22750011717727      -13.43346838611378        1.24172058744372
 N          -3.62623407766962      -10.76765486471498        0.78298158867537
 C          -2.28673573028758      -11.35198344593011        0.78298429088019
 C          -1.72937659663315      -11.45238052806492       -0.60283293607499
 O          -2.12093057133134      -12.33432944811275       -1.33674962206734
 H          -3.70504159463563       -9.91682845263495        0.23133781485923
 H          -1.63471739474226      -10.74581687390591        1.42016062417150
 H          -2.30422098224438      -12.35346670125099        1.21467808204952
 N          -0.78977603001024      -10.53010399570014       -1.00227628334414
 C          -0.37520586204192      -10.46948725429931       -2.38601656918842
 C          -0.81944749576087       -9.17117422329483       -3.01911642727676
 O          -1.89817752111347       -8.73042464254640       -2.71320739626556
 H          -0.63518954557947       -9.67144268180133       -0.47182408781747
 H           0.70984377020828      -10.60139251855883       -2.42802740615034
 H          -0.84027462022067      -11.30852279924581       -2.91001426321024
 N           0.01788230124717       -8.52497358570953       -3.93644685859480
 C           1.29609442122690       -8.87423854987309       -4.35654518303473
 H          -0.36829295842951       -7.67054315772153       -4.37136772525448
 H           2.07812530672921       -8.45153707723429       -3.73462994809115
 H           1.41480864242255       -9.96757797562043       -4.29243143577820
35
 energy: -6.234643070857 gnorm: 0.000095033057 xtb: 6.6.1 (8d0f1dd)
 C          -8.86993294675815      -11.76570237789080        5.46533426504130
 O          -7.95419987305859      -11.20760556800318        6.02218451595995
 N          -8.67662594771930      -12.66937294275501        4.46133830954849
 C          -7.44947863545632      -13.46181284497744        4.46320340249245
 C          -6.72196985900975      -13.48160871887173        3.17470985846641
 O          -7.09369157148937      -14.18175842477531        2.25690366778532
 H          -9.47651317684173      -13.17886849058410        4.07550608420721
 H          -6.80328391892091      -13.05253982052784        5.24822511931446
 H          -7.68611632894740      -14.49025960333062        4.76512720515811
 N          -5.60158677582056      -12.69289891082405        3.11127324320986
 C          -4.79742400664588      -12.69815684814052        1.93318822854756
 C          -4.78588011800339      -11.35095732778814        1.26372554016440
 O          -5.84591352468798      -10.77516723698304        1.13041654674193
 H          -5.43453522884900      -11.93273438080731        3.77468253387160
 H          -3.79758271689195      -13.04303195510201        2.19989432997200
 H          -5.22752445606366      -13.43345171291522        1.24171084356397
 N          -3.62622696643312      -10.76768494705492        0.78295609347063
 C          -2.28672876427299      -11.35201219213731        0.78298035711748
 C          -1.72933406478351      -11.45242022752420       -0.60282909027752
 O          -2.12077577134143      -12.33443373383817       -1.33672114722712
 H          -3.70505200276180       -9.91699550548393        0.23110691945150
 H          -1.63472469430561      -10.74584332726462        1.42017172928051
 H          -2.30418618293773      -12.35348454907906        1.21469167499315
 N          -0.78979824862907      -10.53008117373570       -1.00228016136508
 C          -0.37522233816921      -10.46948740115062       -2.38604533432407
 C          -0.81946992826802       -9.17132925618530       -3.01913580638469
 O          -1.89806480256594       -8.73022103039853       -2.71303994027638
 H          -0.63517859303334       -9.67144882849516       -0.47180797194365
 H           0.70984336279735      -10.60135899245430       -2.42800440709178
 H          -0.84029526519110      -11.30851251531216       -2.91002298567790
 N           0.01775798850668       -8.52500863365204       -3.93662819076832
 C           1.29611397840579       -8.87420120845354       -4.35651935779681
 H          -0.36841446862693       -7.67052557389792       -4.37139814070794
 H           2.07808858750860       -8.45146850850726       -3.73461625650597
 H           1.41492725926532       -9.96755523109889       -4.29228167801108
35
 energy: -6.234642985126 gnorm: 0.000477135123 xtb: 6.6.1 (8d0f1dd)
 C          -8.86995048860354      -11.76566974710080        5.46534369659744
 O          -7.95414911380805      -11.20762751357057        6.02222148462681
 N          -8.67661063974076      -12.66934210113982        4.46137777996724
 C          -7.44948695360266      -13.46178784256596        4.46319677820698
 C          -6.72197297898418      -13.48161866469481        3.17470670027318
 O          -7.09370968971780      -14.18174376301573        2.25689175713133
 H          -9.47650835056196      -13.17887235953585        4.07551400643942
 H          -6.80328703380548      -13.05254559923018        5.24822410251411
 H          -7.68614498405918      -14.49025996957341        4.76509999552736
 N          -5.60160175427788      -12.69290384886244        3.11126755180850
 C          -4.79743924446248      -12.69814929940985        1.93317776633038
 C          -4.78589219475561      -11.35094848315044        1.26372521872975
 O          -5.84591366992716      -10.77514355388863        1.13043304219113
 H          -5.43452680746625      -11.93274775639067        3.77468861599961
 H          -3.79759499850819      -13.04302469878786        2.19989198709716
 H          -5.22753671844954      -13.43344694767935        1.24170577508764
 N          -3.62622051859486      -10.76770120113622        0.78295061378617
 C          -2.28672234429643      -11.35203344413137        0.78297452198261
 C          -1.72932234723240      -11.45243104732562       -0.60283866997952
 O          -2.12071358158987      -12.33446427536677       -1.33672832614483
 H          -3.70505230676158       -9.91706728365170        0.23102061357953
 H          -1.63472041277015      -10.74586899353868        1.42017453279198
 H          -2.30415513371756      -12.35350198989894        1.21468597370100
 N          -0.78981726134696      -10.53005631018616       -1.00228374594843
 C          -0.37523063653076      -10.46948837950455       -2.38606616505321
 C          -0.81949239060478       -9.17146812420598       -3.01915827403893
 O          -1.89800268661245       -8.73009649184209       -2.71295688396526
 H          -0.63518113439431       -9.67144178996231       -0.47180143306310
 H           0.70984875851780      -10.60132950921792       -2.42797806340153
 H          -0.84030711004895      -11.30850484944781       -2.91002816156217
 N           0.01766730367293       -8.52503114545805       -3.93677331874472
 C           1.29615352470587       -8.87419781795586       -4.35651002448102
 H          -0.36852188659396       -7.67049730304958       -4.37140759833710
 H           2.07806327790116       -8.45142575330980       -3.73460994150700
 H           1.41505250702796       -9.96756214221423       -4.29213190814251
