      -----------------------------------------------------------      
     |                   =====================                   |     
     |                           x T B                           |     
     |                   =====================                   |     
     |                         S. Grimme                         |     
     |          Mulliken Center for Theoretical Chemistry        |     
     |                    University of Bonn                     |     
      -----------------------------------------------------------      

   * xtb version 6.6.1 (8d0f1dd) compiled by 'conda@1efc2f54142f' on 2023-08-01

   xtb is free software: you can redistribute it and/or modify it under
   the terms of the GNU Lesser General Public License as published by
   the Free Software Foundation, either version 3 of the License, or
   (at your option) any later version.
   
   xtb is distributed in the hope that it will be useful,
   but WITHOUT ANY WARRANTY; without even the implied warranty of
   MERCHANTABILITY or FITNESS FOR A PARTICULAR PURPOSE.  See the
   GNU Lesser General Public License for more details.
   
   Cite this work as:
   * C. Bannwarth, E. Caldeweyher, S. Ehlert, A. Hansen, P. Pracht,
     J. Seibert, S. Spicher, S. Grimme, WIREs Comput. Mol. Sci., 2020, 11,
     e01493. DOI: 10.1002/wcms.1493
   
   for GFN2-xTB:
   * C. Bannwarth, S. Ehlert and S. Grimme., J. Chem. Theory Comput., 2019,
     15, 1652-1671. DOI: 10.1021/acs.jctc.8b01176
   for GFN1-xTB:
   * S. Grimme, C. Bannwarth, P. Shushkov, J. Chem. Theory Comput., 2017,
     13, 1989-2009. DOI: 10.1021/acs.jctc.7b00118
   for GFN0-xTB:
   * P. Pracht, E. Caldeweyher, S. Ehlert, S. Grimme, ChemRxiv, 2019, preprint.
     DOI: 10.26434/chemrxiv.8326202.v1
   for GFN-FF:
   * S. Spicher and S. Grimme, Angew. Chem. Int. Ed., 2020, 59, 15665-15673.
     DOI: 10.1002/anie.202004239
   
   for ALPB and GBSA implicit solvation:
   * S. Ehlert, M. Stahn, S. Spicher, S. Grimme, J. Chem. Theory Comput.,
     2021, 17, 4250-4261. DOI: 10.1021/acs.jctc.1c00471
   
   for DFT-D4:
   * E. Caldeweyher, C. Bannwarth and S. Grimme, J. Chem. Phys., 2017,
     147, 034112. DOI: 10.1063/1.4993215
   * E. Caldeweyher, S. Ehlert, A. Hansen, H. Neugebauer, S. Spicher,
     C. Bannwarth and S. Grimme, J. Chem. Phys., 2019, 150, 154122.
     DOI: 10.1063/1.5090222
   * E. Caldeweyher, J.-M. Mewes, S. Ehlert and S. Grimme, Phys. Chem. Chem. Phys.
     2020, 22, 8499-8512. DOI: 10.1039/D0CP00502A
   
   for sTDA-xTB:
   * S. Grimme and C. Bannwarth, J. Chem. Phys., 2016, 145, 054103.
     DOI: 10.1063/1.4959605
   
   in the mass-spec context:
   * V. Asgeirsson, C. Bauer and S. Grimme, Chem. Sci., 2017, 8, 4879.
     DOI: 10.1039/c7sc00601b
   * J. Koopman and S. Grimme, ACS Omega 2019, 4, 12, 15120-15133.
     DOI: 10.1021/acsomega.9b02011
   
   for metadynamics refer to:
   * S. Grimme, J. Chem. Theory Comput., 2019, 155, 2847-2862
     DOI: 10.1021/acs.jctc.9b00143
   
   for SPH calculations refer to:
   * S. Spicher and S. Grimme, J. Chem. Theory Comput., 2021, 17, 1701-1714
     DOI: 10.1021/acs.jctc.0c01306
   
   with help from (in alphabetical order)
   P. Atkinson, C. Bannwarth, F. Bohle, G. Brandenburg, E. Caldeweyher
   M. Checinski, S. Dohm, S. Ehlert, S. Ehrlich, I. Gerasimov, C. Hölzer
   A. Katbashev, J. Koopman, C. Lavigne, S. Lehtola, F. März, M. Müller,
   F. Musil, H. Neugebauer, J. Pisarek, C. Plett, P. Pracht, F. Pultar,
   J. Seibert, P. Shushkov, S. Spicher, M. Stahn, M. Steiner, T. Strunk,
   J. Stückrath, T. Rose, and J. Unsleber
   
 * started run on 2025/05/27 at 09:37:51.764     

           -------------------------------------------------
          |                Calculation Setup                |
           -------------------------------------------------

          program call               : xtb substructure_51.pdb --gfnff --input xtb_settings.inp --opt vtight --alpb water --verbose
          coordinate file            : substructure_51.pdb
          xtbhome directory          : /home/dargen3
          path for xtb               : /home/dargen3
          xcontrol input file        : xtb_settings.inp
          omp threads                :                     1

$$$$$$$$$$$$$$$$$$$$$$$$$$$$$$$$$$$$$$$$$$$$$$$$$$$$$$$$$$$$$$$$$$$$$$$$
 CONSTRAINTS & SCANS: DEBUG SECTION
$$$$$$$$$$$$$$$$$$$$$$$$$$$$$$$$$$$$$$$$$$$$$$$$$$$$$$$$$$$$$$$$$$$$$$$$
   ID    Z sym.   atoms
    1    6  C     1, 4, 5, 11, 12, 18, 19, 25, 26, 32
    2    8  O     2, 6, 13, 20, 27
    3    7  N     3, 10, 17, 24, 31
    4    1  H     7-9, 14-16, 21-23, 28-30, 33, 34
> constrain
-> atoms: 1, 2, 3, 4, 5, 6, 7, 8, 9, 10, 11, 12, 13, 14, 15, 16, 18, 24, 25, 26, 27, 28, 29, 30, 31, 32, 33, 34
--> 1: 1
--> 2: 2
--> 3: 3
--> 4: 4
--> 5: 5
--> 6: 6
--> 7: 7
--> 8: 8
--> 9: 9
--> 10: 10
--> 11: 11
--> 12: 12
--> 13: 13
--> 14: 14
--> 15: 15
--> 16: 16
--> 17: 18
--> 18: 24
--> 19: 25
--> 20: 26
--> 21: 27
--> 22: 28
--> 23: 29
--> 24: 30
--> 25: 31
--> 26: 32
--> 27: 33
--> 28: 34
-> force constant=1.0
$$$$$$$$$$$$$$$$$$$$$$$$$$$$$$$$$$$$$$$$$$$$$$$$$$$$$$$$$$$$$$$$$$$$$$$$
           -------------------------------------------------
          |                   Constraints                   |
           -------------------------------------------------

 * 28 constrained atom positions
   positions refering to input geometry

     #   Z                                   position/Å      displ./Å
     1   6 C      1.5270001    -8.4950008    -5.8080005     0.0000000
     2   8 O      0.5910001    -8.5390008    -6.5770006     0.0000000
     3   7 N      2.7860003    -8.1080008    -6.2220006     0.0000000
     4   6 C      3.0050003    -7.6070007    -7.5660007     0.0000000
     5   6 C      3.1560003    -6.1020006    -7.5600007     0.0000000
     6   8 O      2.2470002    -5.4590005    -7.0760007     0.0000000
     7   1 H      3.5250003    -7.9020007    -5.5490005     0.0000000
     8   1 H      3.8570004    -8.1090008    -8.0160007     0.0000000
     9   1 H      2.1200002    -7.8630007    -8.1550008     0.0000000
    10   7 N      4.2580004    -5.4290005    -8.0690007     0.0000000
    11   6 C      5.4280005    -5.9890006    -8.7440008     0.0000000
    12   6 C      5.4130005    -5.6780005   -10.2210009     0.0000000
    13   8 O      4.6360004    -6.2670006   -10.9400010     0.0000000
    14   1 H      4.2090004    -4.4150004    -8.1240008     0.0000000
    15   1 H      6.3340006    -5.6060005    -8.2820008     0.0000000
    16   1 H      5.4520005    -7.0780007    -8.6170008     0.0000000
    18   6 C      6.1780006    -4.2520004   -12.0880011     0.0000000
    24   7 N      6.5080006    -1.8430002   -12.8510012     0.0000000
    25   6 C      7.7600007    -2.0220002   -13.5740013     0.0000000
    26   6 C      8.1720008    -0.7720001   -14.2620013     0.0000000
    27   8 O      7.5660007     0.2590000   -14.0630013     0.0000000
    28   1 H      6.2140006    -0.8650001   -12.8090012     0.0000000
    29   1 H      8.5360008    -2.3430002   -12.8680012     0.0000000
    30   1 H      7.6270007    -2.8290003   -14.3130013     0.0000000
    31   7 N      9.2540009    -0.8280001   -15.1060014     0.0000000
    32   6 C      9.7400009     0.3630000   -15.7630015     0.0000000
    33   1 H      9.8640009    -1.6510002   -15.1760014     0.0000000
    34   1 H      8.9010008     0.7550001   -16.3610015     0.0000000

     applying 378 atom pairwise harmonic potentials
       applied force constant per pair:     0.0370370
     effective force constant per atom:     1.0000000
         constraining energy/grad norm:     0.0000000     0.0000000

     total constraint energy/grad norm:     0.0000000     0.0000000

          charge from pdb residues: 0

          entering GFN-FF setup routine... 34

          ==================== Thresholds ====================
          CN  :   150.00000
          rep :   500.00000
          disp:  2500.00000
          HB1 :   250.00000
          HB2 :   450.00000

          Pauling EN used:
          Z : 1  EN :  2.20
          Z : 6  EN :  2.55
          Z : 7  EN :  3.04
          Z : 8  EN :  3.44
          electric field strengths (au): 0.000

           ------------------------------------------------- 
          |           Force Field Initialization            |
           ------------------------------------------------- 

          distances ...
          ----------------------------------------
          generating topology and atomic info file ...
          pair mat ...
          computing topology distances matrix with Floyd-Warshall algo ...
          making topology EEQ charges ...
          #fragments for EEQ constrain from pdb file: 6
          ----------------------------------------
          generating topology and atomic info file ...
          pair mat ...
          computing topology distances matrix with Floyd-Warshall algo ...
          making topology EEQ charges ...
          #fragments for EEQ constrain from pdb file: 6
          rings ...
          # BATM   262
          # H in HB   14
          doing iterative Hueckel for 5 subsystem(s) ...
          iterative Hueckel run to get P ...
Hueckel system :  1 charge :   0 ndim/Nel :    3    3   eps(HOMO/LUMO)   -0.953556   -0.953556
Hueckel system :  2 charge :   0 ndim/Nel :    3    4   eps(HOMO/LUMO)   -0.911792   -0.911792
Hueckel system :  3 charge :   0 ndim/Nel :    3    4   eps(HOMO/LUMO)   -0.912294   -0.912294
Hueckel system :  4 charge :   0 ndim/Nel :    3    4   eps(HOMO/LUMO)   -0.913320   -0.913320
Hueckel system :  5 charge :   0 ndim/Nel :    4    4   eps(HOMO/LUMO)   -2.208693    2.531636

  atom   neighbors  erfCN metchar sp-hybrid imet pi  qest     coordinates
    1   C      2    1.93   0.00        -2    0    1   0.120    2.885612  -16.053223  -10.975529
    2   O      1    0.98   0.00         2    0    1  -0.120    1.116828  -16.136371  -12.428729
    3   N      3    2.79   0.00        -3    0    1  -0.166    5.264777  -15.321899  -11.757876
    4   C      4    3.49   0.00         3    0    0   0.005    5.678627  -14.375147  -14.297668
    5   C      3    2.79   0.00         2    0    1   0.174    5.963976  -11.531109  -14.286330
    6   O      1    0.98   0.00         2    0    1  -0.352    4.246215  -10.316015  -13.371702
    7   H      1    0.98   0.00         0    0    0   0.153    6.661285  -14.932616  -10.486090
    8   H      1    0.97   0.00         0    0    0   0.093    7.288674  -15.323789  -15.148045
    9   H      1    0.97   0.00         0    0    0   0.093    4.006219  -14.858917  -15.410717
   10   N      3    2.79   0.00        -3    0    1  -0.167    8.046454  -10.259323  -15.248200
   11   C      4    3.49   0.00         3    0    0   0.005   10.257433  -11.317570  -16.523765
   12   C      3    2.79   0.00         2    0    1   0.175   10.229088  -10.729865  -19.314891
   13   O      1    0.98   0.00         2    0    1  -0.353    8.760770  -11.842914  -20.673604
   14   H      1    0.98   0.00         0    0    0   0.155    7.953857   -8.343141  -15.352135
   15   H      1    0.97   0.00         0    0    0   0.093   11.969525  -10.593805  -15.650712
   16   H      1    0.97   0.00         0    0    0   0.093   10.302787  -13.375482  -16.283770
   17   N      3    2.79   0.00        -3    0    1  -0.166   11.873149   -8.925176  -20.238967
   18   C      4    3.49   0.00         3    0    0   0.004   11.674728   -8.035115  -22.843009
   19   C      3    2.79   0.00         2    0    1   0.175   10.983088   -5.264777  -22.888363
   20   O      1    0.98   0.00         2    0    1  -0.353    9.168951   -4.607152  -21.646813
   21   H      1    0.98   0.00         0    0    0   0.152   12.833130   -7.749767  -19.048439
   22   H      1    0.97   0.00         0    0    0   0.094   13.460519   -8.384715  -23.812439
   23   H      1    0.97   0.00         0    0    0   0.094   10.202631   -9.127377  -23.761416
   24   N      3    2.79   0.00        -3    0    1  -0.164   12.298338   -3.482765  -24.284870
   25   C      4    3.49   0.00         3    0    0   0.006   14.664275   -3.821026  -25.651142
   26   C      3    2.80   0.00         2    0    1   0.171   15.442842   -1.458869  -26.951274
   27   O      1    0.98   0.00         2    0    1  -0.351   14.297668    0.489439  -26.575218
   28   H      1    0.98   0.00         0    0    0   0.150   11.742758   -1.634613  -24.205502
   29   H      1    0.97   0.00         0    0    0   0.094   16.130702   -4.427628  -24.316996
   30   H      1    0.97   0.01         0    0    0   0.094   14.412941   -5.346035  -27.047650
   31   N      3    2.79   0.00         3    0    1  -0.058   17.487526   -1.564693  -28.546203
   32   C      2    1.92   0.00        -2    0    1  -0.249   18.405932    0.685971  -29.787753
   33   H      1    0.98   0.00         0    0    0   0.122   18.640258   -3.119938  -28.678484
   34   H      1    0.97   0.01         0    0    0   0.185   16.820452    1.426743  -30.917809

molecular fragment  # atoms  topo charge
       1             2             0.000
       2             7             0.000
       3             7            -0.000
       4             7            -0.000
       5             7            -0.000
       6             4            -0.000


          #atoms :   34
          #bonds :   33

 bond atoms        type  in ring    R      R0    piBO    fqq  kbond(tot)  alp
 O  C     2    1      2    0     1.212   0.996   0.799   1.047  -0.252   0.584
 N  C     3    1      2    0     1.381   1.214   0.504   1.047  -0.235   0.524
 C  N     4    3      1    0     1.451   1.326 -99.000   1.033  -0.151   0.496
 C  C     5    4      1    0     1.513   1.332 -99.000   1.013  -0.162   0.475
 O  C     6    5      2    0     1.214   1.031   0.856   1.047  -0.262   0.584
 H  N     7    3      1    0     1.021   0.890 -99.000   1.047  -0.176   0.551
 H  C     8    4      1    0     1.086   0.977 -99.000   1.018  -0.164   0.482
 H  C     9    4      1    0     1.093   0.976 -99.000   1.018  -0.164   0.482
 N  C    10    5      2    0     1.388   1.263   0.503   1.047  -0.234   0.524
 C  N    11   10      1    0     1.462   1.325 -99.000   1.034  -0.151   0.496
 C  C    12   11      1    0     1.509   1.332 -99.000   1.013  -0.162   0.475
 O  C    13   12      2    0     1.211   1.031   0.856   1.047  -0.262   0.584
 H  N    14   10      1    0     1.017   0.890 -99.000   1.047  -0.176   0.551
 H  C    15   11      1    0     1.087   0.976 -99.000   1.018  -0.164   0.482
 H  C    16   11      1    0     1.097   0.976 -99.000   1.018  -0.164   0.482
 N  C    17   12      2    0     1.381   1.263   0.503   1.047  -0.234   0.524
 C  N    18   17      1    0     1.460   1.326 -99.000   1.032  -0.151   0.496
 C  C    19   18      1    0     1.511   1.332 -99.000   1.014  -0.162   0.475
 O  C    20   19      2    0     1.214   1.031   0.857   1.047  -0.262   0.584
 H  N    21   17      1    0     1.021   0.890 -99.000   1.047  -0.176   0.551
 H  C    22   18      1    0     1.091   0.976 -99.000   1.018  -0.164   0.482
 H  C    23   18      1    0     1.085   0.977 -99.000   1.018  -0.164   0.482
 N  C    24   19      2    0     1.386   1.263   0.503   1.047  -0.234   0.524
 C  N    25   24      1    0     1.457   1.326 -99.000   1.034  -0.151   0.496
 C  C    26   25      1    0     1.485   1.332 -99.000   1.013  -0.162   0.475
 O  C    27   26      2    0     1.212   1.014   0.951   1.047  -0.278   0.584
 H  N    28   24      1    0     1.022   0.890 -99.000   1.047  -0.176   0.551
 H  C    29   25      1    0     1.097   0.976 -99.000   1.017  -0.164   0.482
 H  C    30   25      1    0     1.102   0.976 -99.000   1.017  -0.164   0.482
 N  C    31   26      2    0     1.373   1.302   0.285   1.047  -0.191   0.524
 C  N    32   31      2    0     1.444   1.153   0.841   1.000  -0.287   0.524
 H  N    33   31      1    0     1.027   0.890 -99.000   1.047  -0.176   0.551
 H  C    34   32      1    0     1.102   0.903 -99.000   1.047  -0.182   0.490
          #angl  :   53

 angle atoms        phi0    phi      FC  pi rings
    1    3    2   145.000 121.605   0.082 F   0
    3    4    1   115.000 120.808   0.411 F   0
    3    7    1   115.000 121.276   0.335 F   0
    3    7    4   104.000 115.585   0.182 F   0
    4    5    3   109.500 110.791   0.307 F   0
    4    8    3   109.500 110.028   0.253 F   0
    4    8    5   109.500 112.525   0.251 F   0
    4    9    3   109.500 107.214   0.253 F   0
    4    9    5   109.500 108.414   0.251 F   0
    4    9    8   108.600 107.663   0.209 F   0
    5    6    4   120.000 116.988   0.178 F   0
    5   10    4   120.000 124.074   0.243 F   0
    5   10    6   120.000 118.937   0.177 F   0
   10   11    5   115.000 128.235   0.409 F   0
   10   14    5   115.000 117.722   0.333 F   0
   10   14   11   104.000 113.301   0.182 F   0
   11   12   10   109.500 111.398   0.307 F   0
   11   15   10   109.500 109.625   0.253 F   0
   11   15   12   109.500 110.589   0.251 F   0
   11   16   10   109.500 110.143   0.253 F   0
   11   16   12   109.500 108.550   0.251 F   0
   11   16   15   108.600 106.409   0.209 F   0
   12   13   11   120.000 119.140   0.178 F   0
   12   17   11   120.000 118.854   0.243 F   0
   12   17   13   120.000 122.005   0.177 F   0
   17   18   12   115.000 120.787   0.409 F   0
   17   21   12   115.000 121.082   0.333 F   0
   17   21   18   104.000 114.945   0.182 F   0
   18   19   17   109.500 110.203   0.307 F   0
   18   22   17   109.500 109.073   0.253 F   0
   18   22   19   109.500 111.518   0.251 F   0
   18   23   17   109.500 107.611   0.253 F   0
   18   23   19   109.500 109.621   0.251 F   0
   18   23   22   108.600 108.719   0.209 F   0
   19   20   18   120.000 117.447   0.178 F   0
   19   24   18   120.000 123.165   0.243 F   0
   19   24   20   120.000 119.385   0.177 F   0
   24   25   19   115.000 127.791   0.409 F   0
   24   28   19   115.000 119.001   0.334 F   0
   24   28   25   104.000 112.654   0.182 F   0
   25   26   24   109.500 111.402   0.307 F   0
   25   29   24   109.500 108.933   0.253 F   0
   25   29   26   109.500 110.375   0.251 F   0
   25   30   24   109.500 108.601   0.253 F   0
   25   30   26   109.500 109.822   0.251 F   0
   25   30   29   108.600 107.611   0.209 F   0
   26   27   25   120.000 120.071   0.178 F   0
   26   31   25   120.000 117.965   0.245 F   0
   26   31   27   120.000 121.962   0.179 F   0
   31   32   26   113.000 120.730   0.075 F   0
   31   33   26   113.000 122.861   0.230 F   0
   31   33   32   113.000 115.467   0.120 F   0
   32   34   31   145.000 106.492   0.090 F   0
 torsion atoms        nrot   rings    phi0    phi      FC
    3    1    4    2   2      0     180.000   6.388   0.765
    3    1    7    2   2      0     180.000 168.288   1.135
    4    3    5    1   3      0     180.000 103.463   0.024
    4    3    5    7   3      0     180.000  59.415   0.032
    4    3    8    1   3      0     180.000 131.469   0.034
    4    3    8    7   3      0     180.000  65.653   0.045
    4    3    9    1   3      0     180.000  14.659   0.034
    4    3    9    7   3      0     180.000 177.538   0.045
    5    4    6    3   3      0     180.000  56.444   0.066
    5    4    6    8   3      0     180.000 179.911   0.115
    5    4    6    9   3      0     180.000  60.946   0.115
    5    4   10    3   3      0     180.000 123.560   0.041
    5    4   10    8   3      0     180.000   0.085   0.072
    5    4   10    9   3      0     180.000 119.050   0.072
   10    5   11    4   2      0     180.000   2.961   0.614
   10    5   11    6   2      0     180.000 177.035   0.832
   10    5   14    4   2      0     180.000 172.362   0.911
   10    5   14    6   2      0     180.000   7.633   1.234
   11   10   12    5   3      0     180.000 107.923   0.022
   11   10   12   14   3      0     180.000  61.866   0.032
   11   10   15    5   3      0     180.000 129.345   0.032
   11   10   15   14   3      0     180.000  60.865   0.045
   11   10   16    5   3      0     180.000  12.586   0.032
   11   10   16   14   3      0     180.000 177.625   0.045
   12   11   13   10   3      0     180.000  73.522   0.066
   12   11   13   15   3      0     180.000 164.302   0.115
   12   11   13   16   3      0     180.000  47.919   0.115
   12   11   17   10   3      0     180.000 106.129   0.041
   12   11   17   15   3      0     180.000  16.048   0.072
   12   11   17   16   3      0     180.000 132.431   0.072
   17   12   18   11   2      0     180.000 171.255   0.612
   17   12   18   13   2      0     180.000   8.384   0.830
   17   12   21   11   2      0     180.000  12.445   0.909
   17   12   21   13   2      0     180.000 167.195   1.231
   18   17   19   12   3      0     180.000 115.494   0.022
   18   17   19   21   3      0     180.000  44.544   0.032
   18   17   22   12   3      0     180.000 121.770   0.032
   18   17   22   21   3      0     180.000  78.193   0.045
   18   17   23   12   3      0     180.000   3.993   0.032
   18   17   23   21   3      0     180.000 164.031   0.045
   19   18   20   17   3      0     180.000  51.316   0.066
   19   18   20   22   3      0     180.000 172.606   0.115
   19   18   20   23   3      0     180.000  66.942   0.115
   19   18   24   17   3      0     180.000 129.329   0.041
   19   18   24   22   3      0     180.000   8.039   0.072
   19   18   24   23   3      0     180.000 112.413   0.072
   24   19   25   18   2      0     180.000   8.246   0.610
   24   19   25   20   2      0     180.000 172.411   0.827
   24   19   28   18   2      0     180.000 179.036   0.905
   24   19   28   20   2      0     180.000   1.620   1.227
   25   24   26   19   3      0     180.000 179.089   0.022
   25   24   26   28   3      0     180.000   9.635   0.032
   25   24   29   19   3      0     180.000  58.921   0.032
   25   24   29   28   3      0     180.000 112.354   0.045
   25   24   30   19   3      0     180.000  58.011   0.032
   25   24   30   28   3      0     180.000 130.713   0.045
   26   25   27   24   3      0     180.000   7.744   0.066
   26   25   27   29   3      0     180.000 113.408   0.115
   26   25   27   30   3      0     180.000 128.106   0.115
   26   25   31   24   3      0     180.000 172.864   0.041
   26   25   31   29   3      0     180.000  65.984   0.072
   26   25   31   30   3      0     180.000  52.502   0.072
   31   26   32   25   2      0     180.000 177.433   0.129
   31   26   32   27   2      0     180.000   1.947   0.175
   31   26   33   25   2      0     180.000   9.046   0.174
   31   26   33   27   2      0     180.000 170.335   0.235
   32   31   34   26   2      0     180.000  58.895   1.440
   32   31   34   33   2      0     180.000 131.899   2.051
 out-of-plane atoms          phi0    phi      FC
    3    7    1    4          0.000  15.476   0.133
    5    6   10    4          0.000  -0.004  23.906
   10   14    5   11          0.000   8.307   0.128
   12   13   17   11          0.000   0.316  23.934
   17   21   12   18          0.000  18.090   0.134
   19   20   24   18          0.000  -0.550  23.956
   24   28   19   25          0.000  -7.266   0.143
   26   27   31   25          0.000   0.547  28.295
   31   33   26   32          0.000   9.964   0.326
          #tors  :   77
          #nmol  :   6
          #optfrag :   6

 GFN-FF setup done.

           ------------------------------------------------- 
          |                   G F N - F F                   |
          |          A general generic force-field          |
          |                  Version 1.0.3                  | 
           ------------------------------------------------- 
      * Solvation model:               ALPB
        Solvent                        water
        Parameter file                 internal GFN-FF/ALPB
        Dielectric constant                8.0200E+01
        Reference state                gsolv [1 M gas/solution]
        Free energy shift                  3.6494E-04 Eh       2.2900E-01 kcal/mol
        Temperature                        2.9815E+02 K
        Density                            1.0000E+00 kg/L
        Solvent mass                       1.8000E+01 g/mol
        Interaction kernel             P16
        Born radius scaling (c1)           1.5056E+00
        Born radii integrator          GBOBC
        Born offset                        0.0000E+00 a0       0.0000E+00 AA
        H-bond correction              true
        Ion screening                  false
        Surface tension                    1.0000E-05 Eh       1.5569E+01 dyn/cm
        Grid points                               230 per atom
          Number of HB bonds (bound hydrogen)     321
          Number of HB bonds (unbound hydrogen)   40
          Number of XB bonds                      0

 E+G (total)                   0 d,  0 h,  0 min,  0.001 sec
 distance/D3 list               ...        0 min,  0.000 sec (  0.266%)
 non bonded repulsion           ...        0 min,  0.000 sec (  1.832%)
 dCN                            ...        0 min,  0.000 sec (  2.761%)
 EEQ energy and q               ...        0 min,  0.000 sec (  4.781%)
 D3                             ...        0 min,  0.000 sec (  7.931%)
 EEQ gradient                   ...        0 min,  0.000 sec (  4.242%)
 bonds                          ...        0 min,  0.000 sec (  0.886%)
 bend and torsion               ...        0 min,  0.000 sec (  4.060%)
 bonded ATM                     ...        0 min,  0.000 sec (  1.524%)
 HB/XB (incl list setup)        ...        0 min,  0.000 sec (  9.696%)
 GBSA                           ...        0 min,  0.000 sec ( 64.141%)

         :::::::::::::::::::::::::::::::::::::::::::::::::::::
         ::                     SUMMARY                     ::
         :::::::::::::::::::::::::::::::::::::::::::::::::::::
         :: total energy              -6.046263806012 Eh    ::
         :: total w/o Gsolv           -6.003400279877 Eh    ::
         :: total w/o Gsasa/hb        -6.038630019144 Eh    ::
         :: gradient norm              0.185276615201 Eh/a0 ::
         ::.................................................::
         :: bond energy               -6.072606734213 Eh    ::
         :: angle energy               0.033064269553 Eh    ::
         :: torsion energy             0.014286443220 Eh    ::
         :: repulsion energy           0.372731769981 Eh    ::
         :: electrostat energy        -0.317757272778 Eh    ::
         :: dispersion energy         -0.022257735293 Eh    ::
         :: HB energy                 -0.001277269108 Eh    ::
         :: XB energy                  0.000000000000 Eh    ::
         :: bonded atm energy         -0.009583751238 Eh    ::
         :: external energy            0.000000000000 Eh    ::
         :: -> Gsolv                  -0.042863526135 Eh    ::
         ::    -> Gborn               -0.035229739268 Eh    ::
         ::    -> Gsasa                0.009392804857 Eh    ::
         ::    -> Ghb                 -0.017391530979 Eh    ::
         ::    -> Gshift               0.000364939255 Eh    ::
         :: add. restraining           0.000000000000 Eh    ::
         :: total charge              -0.000000000000 e     ::
         ::.................................................::
         :: atomisation energy         0.000000000000 Eh    ::
         :::::::::::::::::::::::::::::::::::::::::::::::::::::

      ----------------------------------------------------------- 
     |                   =====================                   |
     |                        A N C O P T                        |
     |                   =====================                   |
     |               Approximate Normal Coordinate               |
     |                Rational Function Optimizer                |
      ----------------------------------------------------------- 

          ...................................................
          :                      SETUP                      :
          :.................................................:
          :   optimization level         verytight          :
          :   max. optcycles                    10          :
          :   ANC micro-cycles                  10          :
          :   degrees of freedom                96          :
          :.................................................:
          :   RF solver                   davidson          :
          :   write xtbopt.log                true          :
          :   linear?                        false          :
          :   energy convergence         0.1000000E-06 Eh   :
          :   grad. convergence          0.2000000E-03 Eh/α :
          :   maxmium RF displ.          1.0000000          :
          :   Hlow (freq-cutoff)         0.1000000E-01      :
          :   Hmax (freq-cutoff)         5.0000000          :
          :   S6 in model hess.         20.0000000          :
          ...................................................

generating ANC from model Hessian ...
Using GFN-FF Lindh-Hessian
 Shifting diagonal of input Hessian by    0.0000000000000000     
 Lowest  eigenvalues of input Hessian
    0.000000    0.000000    0.000000    0.000000    0.000000    0.000000
    0.016354    0.022624    0.023826    0.030028    0.046223    0.060730
    0.065823    0.076683    0.082090    0.086945    0.093630    0.099352
 Highest eigenvalues
    3.366378    3.726817    3.782535    3.885290    4.047816    4.389841


........................................................................
.............................. CYCLE    1 ..............................
........................................................................
     iter. time                 ...        0 min,  0.001 sec
 * total energy  :    -6.0462638 Eh     change        0.0000000E+00 Eh
   gradient norm :     0.1852766 Eh/α   predicted     0.0000000E+00 (    NaN%)
   displ. norm   :     0.1900650 α      lambda       -0.1789114E-01
   maximum displ.:     0.0958698 α      in ANC's #18, #17, #26, ...

........................................................................
.............................. CYCLE    2 ..............................
........................................................................
     iter. time                 ...        0 min,  0.001 sec
 * total energy  :    -6.0592607 Eh     change       -0.1299693E-01 Eh
   gradient norm :     0.0810890 Eh/α   predicted    -0.9268778E-02 ( -28.68%)
   displ. norm   :     0.1907956 α      lambda       -0.8575313E-02
   maximum displ.:     0.0943965 α      in ANC's #18, #17, #15, ...

........................................................................
.............................. CYCLE    3 ..............................
........................................................................
     iter. time                 ...        0 min,  0.000 sec
 * total energy  :    -6.0647157 Eh     change       -0.5454971E-02 Eh
   gradient norm :     0.0247330 Eh/α   predicted    -0.4443859E-02 ( -18.54%)
   displ. norm   :     0.1195353 α      lambda       -0.1833925E-02
   maximum displ.:     0.0577492 α      in ANC's #18, #17, #15, ...

........................................................................
.............................. CYCLE    4 ..............................
........................................................................
     iter. time                 ...        0 min,  0.000 sec
 * total energy  :    -6.0659015 Eh     change       -0.1185814E-02 Eh
   gradient norm :     0.0195116 Eh/α   predicted    -0.9300659E-03 ( -21.57%)
   displ. norm   :     0.0525648 α      lambda       -0.5165791E-03
   maximum displ.:     0.0220962 α      in ANC's #50, #49, #18, ...

........................................................................
.............................. CYCLE    5 ..............................
........................................................................
     iter. time                 ...        0 min,  0.000 sec
 * total energy  :    -6.0661671 Eh     change       -0.2655672E-03 Eh
   gradient norm :     0.0081026 Eh/α   predicted    -0.2590051E-03 (  -2.47%)
   displ. norm   :     0.0579717 α      lambda       -0.1340385E-03
   maximum displ.:     0.0356206 α      in ANC's #4, #3, #1, ...

........................................................................
.............................. CYCLE    6 ..............................
........................................................................
     iter. time                 ...        0 min,  0.000 sec
 * total energy  :    -6.0662103 Eh     change       -0.4319136E-04 Eh
   gradient norm :     0.0074569 Eh/α   predicted    -0.6736397E-04 (  55.97%)
   displ. norm   :     0.0119388 α      lambda       -0.3954128E-04
   maximum displ.:     0.0048418 α      in ANC's #18, #1, #15, ...

........................................................................
.............................. CYCLE    7 ..............................
........................................................................
     iter. time                 ...        0 min,  0.000 sec
 * total energy  :    -6.0662346 Eh     change       -0.2432353E-04 Eh
   gradient norm :     0.0022574 Eh/α   predicted    -0.1978232E-04 ( -18.67%)
   displ. norm   :     0.0092890 α      lambda       -0.7900754E-05
   maximum displ.:     0.0042717 α      in ANC's #4, #3, #9, ...

........................................................................
.............................. CYCLE    8 ..............................
........................................................................
     iter. time                 ...        0 min,  0.000 sec
 * total energy  :    -6.0662398 Eh     change       -0.5150298E-05 Eh
   gradient norm :     0.0009406 Eh/α   predicted    -0.3954549E-05 ( -23.22%)
   displ. norm   :     0.0109254 α      lambda       -0.2454545E-05
   maximum displ.:     0.0058351 α      in ANC's #3, #4, #9, ...

........................................................................
.............................. CYCLE    9 ..............................
........................................................................
     iter. time                 ...        0 min,  0.000 sec
 * total energy  :    -6.0662416 Eh     change       -0.1808797E-05 Eh
   gradient norm :     0.0007827 Eh/α   predicted    -0.1236998E-05 ( -31.61%)
   displ. norm   :     0.0026878 α      lambda       -0.3688603E-06
   maximum displ.:     0.0011740 α      in ANC's #5, #2, #1, ...

........................................................................
.............................. CYCLE   10 ..............................
........................................................................
     iter. time                 ...        0 min,  0.000 sec
 * total energy  :    -6.0662420 Eh     change       -0.4433073E-06 Eh
   gradient norm :     0.0002604 Eh/α   predicted    -0.2329965E-06 ( -47.44%)
   displ. norm   :     0.0027041 α      lambda       -0.1511752E-06
   maximum displ.:     0.0015323 α      in ANC's #1, #5, #3, ...

   *** FAILED TO CONVERGE GEOMETRY OPTIMIZATION IN 10 ITERATIONS ***


 ANCopt (total)                0 d,  0 h,  0 min,  0.007 sec
 optimizer setup                ...        0 min,  0.000 sec (  0.871%)
 model hessian                  ...        0 min,  0.000 sec (  3.473%)
 ANC generation                 ...        0 min,  0.001 sec (  9.052%)
 coordinate transformation      ...        0 min,  0.000 sec (  0.473%)
 single point calculation       ...        0 min,  0.005 sec ( 74.023%)
 optimization log               ...        0 min,  0.000 sec (  5.734%)
 hessian update                 ...        0 min,  0.000 sec (  0.626%)
 rational function              ...        0 min,  0.000 sec (  3.488%)

================
 final structure:
================
ATOM      1  C   GLY A  13       1.541  -8.515  -5.828  1.00  0.00           C  
ATOM      2  O   GLY A  13       0.588  -8.532  -6.565  1.00  0.00           O  
ATOM      3  N   GLY A  14       2.781  -8.111  -6.221  1.00  0.00           N  
ATOM      4  CA  GLY A  14       3.004  -7.602  -7.564  1.00  0.00           C  
ATOM      5  C   GLY A  14       3.154  -6.102  -7.561  1.00  0.00           C  
ATOM      6  O   GLY A  14       2.243  -5.460  -7.080  1.00  0.00           O  
ATOM      7  H   GLY A  14       3.518  -7.896  -5.547  1.00  0.00           H  
ATOM      8  HA2 GLY A  14       3.858  -8.109  -8.016  1.00  0.00           H  
ATOM      9  HA3 GLY A  14       2.121  -7.866  -8.159  1.00  0.00           H  
ATOM     10  N   GLY A  15       4.257  -5.428  -8.069  1.00  0.00           N  
ATOM     11  CA  GLY A  15       5.425  -5.992  -8.748  1.00  0.00           C  
ATOM     12  C   GLY A  15       5.414  -5.677 -10.220  1.00  0.00           C  
ATOM     13  O   GLY A  15       4.637  -6.267 -10.940  1.00  0.00           O  
ATOM     14  H   GLY A  15       4.207  -4.414  -8.124  1.00  0.00           H  
ATOM     15  HA2 GLY A  15       6.333  -5.603  -8.279  1.00  0.00           H  
ATOM     16  HA3 GLY A  15       5.453  -7.076  -8.614  1.00  0.00           H  
ATOM     17  N   GLY A  16       6.283  -4.723 -10.710  1.00  0.00           N  
ATOM     18  CA  GLY A  16       6.182  -4.245 -12.080  1.00  0.00           C  
ATOM     19  C   GLY A  16       5.812  -2.786 -12.111  1.00  0.00           C  
ATOM     20  O   GLY A  16       4.853  -2.438 -11.453  1.00  0.00           O  
ATOM     21  H   GLY A  16       6.791  -4.102 -10.080  1.00  0.00           H  
ATOM     22  HA2 GLY A  16       7.123  -4.437 -12.601  1.00  0.00           H  
ATOM     23  HA3 GLY A  16       5.399  -4.830 -12.575  1.00  0.00           H  
ATOM     24  N   GLY A  17       6.507  -1.843 -12.851  1.00  0.00           N  
ATOM     25  CA  GLY A  17       7.761  -2.028 -13.575  1.00  0.00           C  
ATOM     26  C   GLY A  17       8.168  -0.763 -14.252  1.00  0.00           C  
ATOM     27  O   GLY A  17       7.561   0.257 -14.067  1.00  0.00           O  
ATOM     28  H   GLY A  17       6.215  -0.864 -12.808  1.00  0.00           H  
ATOM     29  HA2 GLY A  17       8.535  -2.338 -12.864  1.00  0.00           H  
ATOM     30  HA3 GLY A  17       7.630  -2.828 -14.311  1.00  0.00           H  
ATOM     31  N   ALA A  18       9.284  -0.799 -15.091  1.00  0.00           N  
ATOM     32  CA  ALA A  18       9.666   0.208 -15.931  1.00  0.00           C  
ATOM     33  H   ALA A  18       9.888  -1.629 -15.133  1.00  0.00           H  
ATOM     34  HA  ALA A  18       8.931   0.851 -16.263  1.00  0.00           H  
END

 Bond Distances (Angstroems)
 ---------------------------
C1-O2=1.2045         C1-N3=1.3617         O2-C1=1.2045         N3-C1=1.3617         N3-C4=1.4535         N3-H7=1.0227         
C4-N3=1.4535         C4-C5=1.5074         C4-H8=1.0912         C4-H9=1.0961         C5-C4=1.5074         C5-O6=1.2145         
C5-N10=1.3881        O6-C5=1.2145         H7-N3=1.0227         H8-C4=1.0912         H9-C4=1.0961         N10-C5=1.3881        
N10-C11=1.4644       N10-H14=1.0167       C11-N10=1.4644       C11-C12=1.5051       C11-H15=1.0935       C11-H16=1.0924       
C12-C11=1.5051       C12-O13=1.2122       C12-N17=1.3806       O13-C12=1.2122       H14-N10=1.0167       H15-C11=1.0935       
H16-C11=1.0924       N17-C12=1.3806       N17-C18=1.4542       N17-H21=1.0204       C18-N17=1.4542       C18-C19=1.5056       
C18-H22=1.0932       C18-H23=1.0957       C19-C18=1.5056       C19-O20=1.2137       C19-N24=1.3859       O20-C19=1.2137       
H21-N17=1.0204       H22-C18=1.0932       H23-C18=1.0957       N24-C19=1.3859       N24-C25=1.4590       N24-H28=1.0224       
C25-N24=1.4590       C25-C26=1.4915       C25-H29=1.0960       C25-H30=1.0949       C26-C25=1.4915       C26-O27=1.2011       
C26-N31=1.3972       O27-C26=1.2011       H28-N24=1.0224       H29-C25=1.0960       H30-C25=1.0949       N31-C26=1.3972       
N31-C32=1.3654       N31-H33=1.0280       C32-N31=1.3654       C32-H34=1.0315       H33-N31=1.0280       H34-C32=1.0315       
 C  H  Rav=1.0872 sigma=0.0198  Rmin=1.0315  Rmax=1.0961     9
 C  C  Rav=1.5024 sigma=0.0064  Rmin=1.4915  Rmax=1.5074     4
 N  H  Rav=1.0220 sigma=0.0037  Rmin=1.0167  Rmax=1.0280     5
 N  C  Rav=1.4110 sigma=0.0395  Rmin=1.3617  Rmax=1.4644    10
 O  C  Rav=1.2092 sigma=0.0054  Rmin=1.2011  Rmax=1.2145     5

 selected bond angles (degree)
 --------------------
N3-C1-O2=123.20                C4-N3-C1=120.69                H7-N3-C1=121.92                H7-N3-C4=115.16                
C5-C4-N3=111.22                H8-C4-N3=109.86                H8-C4-C5=112.63                H9-C4-N3=107.04                
H9-C4-C5=108.72                H9-C4-H8=107.12                O6-C5-C4=116.86                N10-C5-C4=124.19               
N10-C5-O6=118.95               C11-N10-C5=128.02              H14-N10-C5=117.74              H14-N10-C11=113.44             

 selected dihedral angles (degree)
 ---------------------------------
C4-N3-C1-O2=  3.28            H7-N3-C1-O2=165.49            C5-C4-N3-C1=104.53            C5-C4-N3-H7=301.18            
H8-C4-N3-C1=229.91            H8-C4-N3-H7= 66.57            H9-C4-N3-C1=345.90            H9-C4-N3-H7=182.55            
O6-C5-C4-N3=303.58            O6-C5-C4-H8=179.75            O6-C5-C4-H9= 61.20            N10-C5-C4-N3=123.56           
N10-C5-C4-H8=359.73           N10-C5-C4-H9=241.17           C11-N10-C5-C4=  3.39          C11-N10-C5-O6=183.37          
H14-N10-C5-C4=172.45          H14-N10-C5-O6=352.43          
           -------------------------------------------------
          |                Final Singlepoint                |
           -------------------------------------------------
         :::::::::::::::::::::::::::::::::::::::::::::::::::::
         ::                     SUMMARY                     ::
         :::::::::::::::::::::::::::::::::::::::::::::::::::::
         :: total energy              -6.066242185166 Eh    ::
         :: total w/o Gsolv           -6.023962150513 Eh    ::
         :: total w/o Gsasa/hb        -6.058598346428 Eh    ::
         :: gradient norm              0.000228155341 Eh/a0 ::
         ::.................................................::
         :: bond energy               -6.103180045145 Eh    ::
         :: angle energy               0.029541589972 Eh    ::
         :: torsion energy             0.009735536960 Eh    ::
         :: repulsion energy           0.383343261323 Eh    ::
         :: electrostat energy        -0.320057543838 Eh    ::
         :: dispersion energy         -0.022263007953 Eh    ::
         :: HB energy                 -0.001271880741 Eh    ::
         :: XB energy                  0.000000000000 Eh    ::
         :: bonded atm energy         -0.009349563034 Eh    ::
         :: external energy            0.000000000000 Eh    ::
         :: -> Gsolv                  -0.042280034652 Eh    ::
         ::    -> Gborn               -0.034636195915 Eh    ::
         ::    -> Gsasa                0.009436898209 Eh    ::
         ::    -> Ghb                 -0.017445676201 Eh    ::
         ::    -> Gshift               0.000364939255 Eh    ::
         :: add. restraining           0.009539501944 Eh    ::
         :: total charge               0.000000000000 e     ::
         ::.................................................::
         :: atomisation energy         0.000000000000 Eh    ::
         :::::::::::::::::::::::::::::::::::::::::::::::::::::

           -------------------------------------------------
          |                Property Printout                |
           -------------------------------------------------
           -------------------------------------------------
          |                Geometry Summary                 |
           -------------------------------------------------

      molecular mass/u    :      284.2490701
   center of mass at/Å    :        5.2302293      -4.3481732     -10.5309160
  moments of inertia/u·Å² :        0.3387076E+03   0.6473915E+04   0.6607459E+04
rotational constants/cm⁻¹ :        0.4977046E-01   0.2603932E-02   0.2551303E-02

 * 28 selected distances

     #   Z          #   Z                                           value/Å
     1   6  C       3   7  N                                      1.3617209
     3   7  N       4   6  C                                      1.4535061
     5   6  C       6   8  O                                      1.2144944
     3   7  N       7   1  H                                      1.0226856
     4   6  C       8   1  H                                      1.0912304
     4   6  C       9   1  H                                      1.0961076
     5   6  C      10   7  N                                      1.3880980
    10   7  N      11   6  C                                      1.4643796 (max)
    12   6  C      13   8  O                                      1.2122358
    10   7  N      14   1  H                                      1.0167178 (min)
    11   6  C      15   1  H                                      1.0934667
    11   6  C      16   1  H                                      1.0924129
    12   6  C      17   7  N                                      1.3806320
    17   7  N      18   6  C                                      1.4542409
    19   6  C      20   8  O                                      1.2136844
    17   7  N      21   1  H                                      1.0203657
    18   6  C      22   1  H                                      1.0932059
    18   6  C      23   1  H                                      1.0956774
    19   6  C      24   7  N                                      1.3859136
    24   7  N      25   6  C                                      1.4590226
    26   6  C      27   8  O                                      1.2010860
    24   7  N      28   1  H                                      1.0224433
    25   6  C      29   1  H                                      1.0960095
    25   6  C      30   1  H                                      1.0949483
    26   6  C      31   7  N                                      1.3972137
    31   7  N      32   6  C                                      1.3654101
    31   7  N      33   1  H                                      1.0280097
    32   6  C      34   1  H                                      1.0314881

 * 4 distinct bonds (by element types)

   Z      Z             #   av. dist./Å        max./Å        min./Å
   1 H    6 C           9     1.0871719     1.0961076     1.0314881
   1 H    7 N           5     1.0220444     1.0280097     1.0167178
   6 C    7 N          10     1.4110137     1.4643796     1.3617209
   6 C    8 O           4     1.2103752     1.2144944     1.2010860


optimized geometry written to: xtbopt.pdb


           -------------------------------------------------
          | TOTAL ENERGY               -6.066242185166 Eh   |
          | GRADIENT NORM               0.000228155341 Eh/α |
           -------------------------------------------------
########################################################################
[WARNING] Runtime exception occurred
-1- gfnff_setup: Could not read topology file.
########################################################################

------------------------------------------------------------------------
 unit  open   action     filename
   10 false : read       xtb_settings.inp
   10 false : read       substructure_51.pdb
   10 false : read       xtb_settings.inp
   10 false : written    gfnff_topo
   10 false : written    gfnff_adjacency
   10 false : written    gfnff_charges
   10 false : deleted    .xtboptok
   10 false : replaced   xtbopt.log
   11 false : created    .xtboptok
   11 false : replaced   gfnff_charges
   10 false : replaced   xtbopt.pdb

------------------------------------------------------------------------
 * finished run on 2025/05/27 at 09:37:51.775     
------------------------------------------------------------------------
 total:
 * wall-time:     0 d,  0 h,  0 min,  0.011 sec
 *  cpu-time:     0 d,  0 h,  0 min,  0.011 sec
 * ratio c/w:     1.000 speedup
 SCF:
 * wall-time:     0 d,  0 h,  0 min,  0.001 sec
 *  cpu-time:     0 d,  0 h,  0 min,  0.001 sec
 * ratio c/w:     1.000 speedup
 ANC optimizer:
 * wall-time:     0 d,  0 h,  0 min,  0.008 sec
 *  cpu-time:     0 d,  0 h,  0 min,  0.008 sec
 * ratio c/w:     1.000 speedup

