      -----------------------------------------------------------      
     |                   =====================                   |     
     |                           x T B                           |     
     |                   =====================                   |     
     |                         S. Grimme                         |     
     |          Mulliken Center for Theoretical Chemistry        |     
     |                    University of Bonn                     |     
      -----------------------------------------------------------      

   * xtb version 6.6.1 (8d0f1dd) compiled by 'conda@1efc2f54142f' on 2023-08-01

   xtb is free software: you can redistribute it and/or modify it under
   the terms of the GNU Lesser General Public License as published by
   the Free Software Foundation, either version 3 of the License, or
   (at your option) any later version.
   
   xtb is distributed in the hope that it will be useful,
   but WITHOUT ANY WARRANTY; without even the implied warranty of
   MERCHANTABILITY or FITNESS FOR A PARTICULAR PURPOSE.  See the
   GNU Lesser General Public License for more details.
   
   Cite this work as:
   * C. Bannwarth, E. Caldeweyher, S. Ehlert, A. Hansen, P. Pracht,
     J. Seibert, S. Spicher, S. Grimme, WIREs Comput. Mol. Sci., 2020, 11,
     e01493. DOI: 10.1002/wcms.1493
   
   for GFN2-xTB:
   * C. Bannwarth, S. Ehlert and S. Grimme., J. Chem. Theory Comput., 2019,
     15, 1652-1671. DOI: 10.1021/acs.jctc.8b01176
   for GFN1-xTB:
   * S. Grimme, C. Bannwarth, P. Shushkov, J. Chem. Theory Comput., 2017,
     13, 1989-2009. DOI: 10.1021/acs.jctc.7b00118
   for GFN0-xTB:
   * P. Pracht, E. Caldeweyher, S. Ehlert, S. Grimme, ChemRxiv, 2019, preprint.
     DOI: 10.26434/chemrxiv.8326202.v1
   for GFN-FF:
   * S. Spicher and S. Grimme, Angew. Chem. Int. Ed., 2020, 59, 15665-15673.
     DOI: 10.1002/anie.202004239
   
   for ALPB and GBSA implicit solvation:
   * S. Ehlert, M. Stahn, S. Spicher, S. Grimme, J. Chem. Theory Comput.,
     2021, 17, 4250-4261. DOI: 10.1021/acs.jctc.1c00471
   
   for DFT-D4:
   * E. Caldeweyher, C. Bannwarth and S. Grimme, J. Chem. Phys., 2017,
     147, 034112. DOI: 10.1063/1.4993215
   * E. Caldeweyher, S. Ehlert, A. Hansen, H. Neugebauer, S. Spicher,
     C. Bannwarth and S. Grimme, J. Chem. Phys., 2019, 150, 154122.
     DOI: 10.1063/1.5090222
   * E. Caldeweyher, J.-M. Mewes, S. Ehlert and S. Grimme, Phys. Chem. Chem. Phys.
     2020, 22, 8499-8512. DOI: 10.1039/D0CP00502A
   
   for sTDA-xTB:
   * S. Grimme and C. Bannwarth, J. Chem. Phys., 2016, 145, 054103.
     DOI: 10.1063/1.4959605
   
   in the mass-spec context:
   * V. Asgeirsson, C. Bauer and S. Grimme, Chem. Sci., 2017, 8, 4879.
     DOI: 10.1039/c7sc00601b
   * J. Koopman and S. Grimme, ACS Omega 2019, 4, 12, 15120-15133.
     DOI: 10.1021/acsomega.9b02011
   
   for metadynamics refer to:
   * S. Grimme, J. Chem. Theory Comput., 2019, 155, 2847-2862
     DOI: 10.1021/acs.jctc.9b00143
   
   for SPH calculations refer to:
   * S. Spicher and S. Grimme, J. Chem. Theory Comput., 2021, 17, 1701-1714
     DOI: 10.1021/acs.jctc.0c01306
   
   with help from (in alphabetical order)
   P. Atkinson, C. Bannwarth, F. Bohle, G. Brandenburg, E. Caldeweyher
   M. Checinski, S. Dohm, S. Ehlert, S. Ehrlich, I. Gerasimov, C. Hölzer
   A. Katbashev, J. Koopman, C. Lavigne, S. Lehtola, F. März, M. Müller,
   F. Musil, H. Neugebauer, J. Pisarek, C. Plett, P. Pracht, F. Pultar,
   J. Seibert, P. Shushkov, S. Spicher, M. Stahn, M. Steiner, T. Strunk,
   J. Stückrath, T. Rose, and J. Unsleber
   
 * started run on 2025/05/27 at 09:37:42.795     

           -------------------------------------------------
          |                Calculation Setup                |
           -------------------------------------------------

          program call               : xtb substructure_25.pdb --gfnff --input xtb_settings.inp --opt vtight --alpb water --verbose
          coordinate file            : substructure_25.pdb
          xtbhome directory          : /home/dargen3
          path for xtb               : /home/dargen3
          xcontrol input file        : xtb_settings.inp
          omp threads                :                     1

$$$$$$$$$$$$$$$$$$$$$$$$$$$$$$$$$$$$$$$$$$$$$$$$$$$$$$$$$$$$$$$$$$$$$$$$
 CONSTRAINTS & SCANS: DEBUG SECTION
$$$$$$$$$$$$$$$$$$$$$$$$$$$$$$$$$$$$$$$$$$$$$$$$$$$$$$$$$$$$$$$$$$$$$$$$
   ID    Z sym.   atoms
    1    6  C     1, 4, 5, 11, 12, 18, 19, 25, 26, 32
    2    8  O     2, 6, 13, 20, 27
    3    7  N     3, 10, 17, 24, 31
    4    1  H     7-9, 14-16, 21-23, 28-30, 33, 34
> constrain
-> atoms: 1, 2, 3, 4, 5, 6, 7, 8, 9, 10, 11, 12, 13, 14, 15, 16, 18, 24, 25, 26, 27, 28, 29, 30, 31, 32, 33, 34
--> 1: 1
--> 2: 2
--> 3: 3
--> 4: 4
--> 5: 5
--> 6: 6
--> 7: 7
--> 8: 8
--> 9: 9
--> 10: 10
--> 11: 11
--> 12: 12
--> 13: 13
--> 14: 14
--> 15: 15
--> 16: 16
--> 17: 18
--> 18: 24
--> 19: 25
--> 20: 26
--> 21: 27
--> 22: 28
--> 23: 29
--> 24: 30
--> 25: 31
--> 26: 32
--> 27: 33
--> 28: 34
-> force constant=1.0
$$$$$$$$$$$$$$$$$$$$$$$$$$$$$$$$$$$$$$$$$$$$$$$$$$$$$$$$$$$$$$$$$$$$$$$$
           -------------------------------------------------
          |                   Constraints                   |
           -------------------------------------------------

 * 28 constrained atom positions
   positions refering to input geometry

     #   Z                                   position/Å      displ./Å
     1   6 C      1.5120001    -8.4510008    -5.7970005     0.0000000
     2   8 O      0.5520001    -8.3940008    -6.5350006     0.0000000
     3   7 N      2.7820003    -8.1430008    -6.2360006     0.0000000
     4   6 C      3.0050003    -7.6070007    -7.5660007     0.0000000
     5   6 C      3.1800003    -6.1040006    -7.5160007     0.0000000
     6   8 O      2.2960002    -5.4630005    -6.9840006     0.0000000
     7   1 H      3.5540003    -8.0210007    -5.5800005     0.0000000
     8   1 H      3.8450004    -8.1080008    -8.0380007     0.0000000
     9   1 H      2.1100002    -7.8290007    -8.1570008     0.0000000
    10   7 N      4.2710004    -5.4310005    -8.0450007     0.0000000
    11   6 C      5.4280005    -5.9890006    -8.7440008     0.0000000
    12   6 C      5.4000005    -5.6670005   -10.2170009     0.0000000
    13   8 O      4.6350004    -6.2690006   -10.9390010     0.0000000
    14   1 H      4.2400004    -4.4140004    -8.0600007     0.0000000
    15   1 H      6.3430006    -5.6150005    -8.2900008     0.0000000
    16   1 H      5.4480005    -7.0790007    -8.6260008     0.0000000
    18   6 C      6.1780006    -4.2520004   -12.0880011     0.0000000
    24   7 N      6.4910006    -1.8490002   -12.8730012     0.0000000
    25   6 C      7.7600007    -2.0220002   -13.5740013     0.0000000
    26   6 C      8.1320008    -0.7880001   -14.3140013     0.0000000
    27   8 O      7.3960007     0.1750000   -14.3080013     0.0000000
    28   1 H      6.1350006    -0.8920001   -12.9210012     0.0000000
    29   1 H      8.5340008    -2.2860002   -12.8480012     0.0000000
    30   1 H      7.6570007    -2.8610003   -14.2810013     0.0000000
    31   7 N      9.3100009    -0.7990001   -15.0200014     0.0000000
    32   6 C      9.7400009     0.3630000   -15.7630015     0.0000000
    33   1 H      9.9790009    -1.5770001   -14.9830014     0.0000000
    34   1 H      8.9340008     0.5940001   -16.4780015     0.0000000

     applying 378 atom pairwise harmonic potentials
       applied force constant per pair:     0.0370370
     effective force constant per atom:     1.0000000
         constraining energy/grad norm:     0.0000000     0.0000000

     total constraint energy/grad norm:     0.0000000     0.0000000

          charge from pdb residues: 0

          entering GFN-FF setup routine... 34

          ==================== Thresholds ====================
          CN  :   150.00000
          rep :   500.00000
          disp:  2500.00000
          HB1 :   250.00000
          HB2 :   450.00000

          Pauling EN used:
          Z : 1  EN :  2.20
          Z : 6  EN :  2.55
          Z : 7  EN :  3.04
          Z : 8  EN :  3.44
          electric field strengths (au): 0.000

           ------------------------------------------------- 
          |           Force Field Initialization            |
           ------------------------------------------------- 

          distances ...
          ----------------------------------------
          generating topology and atomic info file ...
          pair mat ...
          computing topology distances matrix with Floyd-Warshall algo ...
          making topology EEQ charges ...
          #fragments for EEQ constrain from pdb file: 6
          ----------------------------------------
          generating topology and atomic info file ...
          pair mat ...
          computing topology distances matrix with Floyd-Warshall algo ...
          making topology EEQ charges ...
          #fragments for EEQ constrain from pdb file: 6
          rings ...
          # BATM   262
          # H in HB   14
          doing iterative Hueckel for 5 subsystem(s) ...
          iterative Hueckel run to get P ...
Hueckel system :  1 charge :   0 ndim/Nel :    3    3   eps(HOMO/LUMO)   -0.953556   -0.953556
Hueckel system :  2 charge :   0 ndim/Nel :    3    4   eps(HOMO/LUMO)   -0.911792   -0.911792
Hueckel system :  3 charge :   0 ndim/Nel :    3    4   eps(HOMO/LUMO)   -0.912294   -0.912294
Hueckel system :  4 charge :   0 ndim/Nel :    3    4   eps(HOMO/LUMO)   -0.913320   -0.913320
Hueckel system :  5 charge :   0 ndim/Nel :    4    4   eps(HOMO/LUMO)   -2.208693    2.531636

  atom   neighbors  erfCN metchar sp-hybrid imet pi  qest     coordinates
    1   C      2    1.93   0.00        -2    0    1   0.120    2.857266  -15.970075  -10.954742
    2   O      1    0.98   0.00         2    0    1  -0.120    1.043129  -15.862361  -12.349360
    3   N      3    2.79   0.00        -3    0    1  -0.166    5.257218  -15.388040  -11.784332
    4   C      4    3.49   0.00         3    0    0   0.005    5.678627  -14.375147  -14.297668
    5   C      3    2.79   0.00         2    0    1   0.174    6.009329  -11.534888  -14.203182
    6   O      1    0.98   0.00         2    0    1  -0.352    4.338811  -10.323574  -13.197847
    7   H      1    0.98   0.00         0    0    0   0.153    6.716087  -15.157493  -10.544672
    8   H      1    0.97   0.00         0    0    0   0.093    7.265997  -15.321899  -15.189619
    9   H      1    0.97   0.00         0    0    0   0.093    3.987322  -14.794666  -15.414496
   10   N      3    2.79   0.00        -3    0    1  -0.167    8.071020  -10.263103  -15.202847
   11   C      4    3.49   0.00         3    0    0   0.005   10.257433  -11.317570  -16.523765
   12   C      3    2.79   0.00         2    0    1   0.175   10.204521  -10.709078  -19.307332
   13   O      1    0.98   0.00         2    0    1  -0.353    8.758881  -11.846693  -20.671714
   14   H      1    0.98   0.00         0    0    0   0.155    8.012439   -8.341251  -15.231193
   15   H      1    0.97   0.00         0    0    0   0.093   11.986533  -10.610812  -15.665830
   16   H      1    0.97   0.00         0    0    0   0.093   10.295228  -13.377371  -16.300778
   17   N      3    2.79   0.00        -3    0    1  -0.166   11.812678   -8.868485  -20.220070
   18   C      4    3.49   0.00         3    0    0   0.004   11.674728   -8.035115  -22.843009
   19   C      3    2.79   0.00         2    0    1   0.175   10.913168   -5.285564  -22.982849
   20   O      1    0.98   0.00         2    0    1  -0.353    9.000766   -4.661954  -21.879249
   21   H      1    0.98   0.00         0    0    0   0.152   12.770769   -7.694965  -19.027652
   22   H      1    0.97   0.00         0    0    0   0.094   13.498314   -8.360148  -23.748188
   23   H      1    0.97   0.00         0    0    0   0.094   10.261213   -9.187848  -23.787872
   24   N      3    2.79   0.00        -3    0    1  -0.164   12.266212   -3.494104  -24.326444
   25   C      4    3.49   0.00         3    0    0   0.006   14.664275   -3.821026  -25.651142
   26   C      3    2.80   0.00         2    0    1   0.171   15.367253   -1.489104  -27.049540
   27   O      1    0.98   0.00         2    0    1  -0.351   13.976414    0.330702  -27.038201
   28   H      1    0.98   0.00         0    0    0   0.150   11.593470   -1.685636  -24.417151
   29   H      1    0.97   0.00         0    0    0   0.094   16.126923   -4.319914  -24.279201
   30   H      1    0.97   0.01         0    0    0   0.094   14.469633   -5.406506  -26.987179
   31   N      3    2.79   0.00         3    0    1  -0.058   17.593350   -1.509891  -28.383686
   32   C      2    1.92   0.00        -2    0    1  -0.249   18.405932    0.685971  -29.787753
   33   H      1    0.98   0.00         0    0    0   0.122   18.857577   -2.980098  -28.313767
   34   H      1    0.97   0.01         0    0    0   0.185   16.882813    1.122497  -31.138907

molecular fragment  # atoms  topo charge
       1             2             0.000
       2             7             0.000
       3             7            -0.000
       4             7            -0.000
       5             7            -0.000
       6             4            -0.000


          #atoms :   34
          #bonds :   33

 bond atoms        type  in ring    R      R0    piBO    fqq  kbond(tot)  alp
 O  C     2    1      2    0     1.212   0.996   0.799   1.047  -0.252   0.584
 N  C     3    1      2    0     1.379   1.214   0.504   1.047  -0.235   0.524
 C  N     4    3      1    0     1.451   1.326 -99.000   1.033  -0.151   0.496
 C  C     5    4      1    0     1.514   1.332 -99.000   1.013  -0.162   0.475
 O  C     6    5      2    0     1.215   1.031   0.856   1.047  -0.262   0.584
 H  N     7    3      1    0     1.020   0.890 -99.000   1.047  -0.176   0.551
 H  C     8    4      1    0     1.086   0.977 -99.000   1.018  -0.164   0.482
 H  C     9    4      1    0     1.095   0.976 -99.000   1.018  -0.164   0.482
 N  C    10    5      2    0     1.387   1.263   0.503   1.047  -0.234   0.524
 C  N    11   10      1    0     1.462   1.325 -99.000   1.034  -0.151   0.496
 C  C    12   11      1    0     1.508   1.332 -99.000   1.013  -0.162   0.475
 O  C    13   12      2    0     1.212   1.031   0.856   1.047  -0.262   0.584
 H  N    14   10      1    0     1.018   0.890 -99.000   1.047  -0.176   0.551
 H  C    15   11      1    0     1.088   0.976 -99.000   1.018  -0.164   0.482
 H  C    16   11      1    0     1.097   0.976 -99.000   1.018  -0.164   0.482
 N  C    17   12      2    0     1.381   1.263   0.503   1.047  -0.234   0.524
 C  N    18   17      1    0     1.458   1.326 -99.000   1.032  -0.151   0.496
 C  C    19   18      1    0     1.512   1.332 -99.000   1.014  -0.162   0.475
 O  C    20   19      2    0     1.214   1.031   0.857   1.047  -0.262   0.584
 H  N    21   17      1    0     1.020   0.890 -99.000   1.047  -0.176   0.551
 H  C    22   18      1    0     1.091   0.976 -99.000   1.018  -0.164   0.482
 H  C    23   18      1    0     1.087   0.977 -99.000   1.018  -0.164   0.482
 N  C    24   19      2    0     1.384   1.263   0.503   1.047  -0.234   0.524
 C  N    25   24      1    0     1.460   1.326 -99.000   1.034  -0.151   0.496
 C  C    26   25      1    0     1.486   1.332 -99.000   1.013  -0.162   0.475
 O  C    27   26      2    0     1.212   1.014   0.951   1.047  -0.278   0.584
 H  N    28   24      1    0     1.022   0.890 -99.000   1.047  -0.176   0.551
 H  C    29   25      1    0     1.094   0.976 -99.000   1.017  -0.164   0.482
 H  C    30   25      1    0     1.102   0.976 -99.000   1.017  -0.164   0.482
 N  C    31   26      2    0     1.373   1.302   0.285   1.047  -0.191   0.524
 C  N    32   31      2    0     1.445   1.153   0.841   1.000  -0.287   0.524
 H  N    33   31      1    0     1.027   0.890 -99.000   1.047  -0.176   0.551
 H  C    34   32      1    0     1.102   0.903 -99.000   1.047  -0.182   0.490
          #angl  :   53

 angle atoms        phi0    phi      FC  pi rings
    1    3    2   145.000 121.681   0.082 F   0
    3    4    1   115.000 121.060   0.411 F   0
    3    7    1   115.000 121.263   0.335 F   0
    3    7    4   104.000 115.390   0.182 F   0
    4    5    3   109.500 110.743   0.307 F   0
    4    8    3   109.500 110.292   0.253 F   0
    4    8    5   109.500 112.515   0.251 F   0
    4    9    3   109.500 107.104   0.253 F   0
    4    9    5   109.500 108.270   0.251 F   0
    4    9    8   108.600 107.700   0.209 F   0
    5    6    4   120.000 117.016   0.178 F   0
    5   10    4   120.000 124.065   0.243 F   0
    5   10    6   120.000 118.917   0.177 F   0
   10   11    5   115.000 128.287   0.409 F   0
   10   14    5   115.000 117.820   0.333 F   0
   10   14   11   104.000 113.478   0.182 F   0
   11   12   10   109.500 111.760   0.307 F   0
   11   15   10   109.500 109.562   0.253 F   0
   11   15   12   109.500 110.480   0.251 F   0
   11   16   10   109.500 110.016   0.253 F   0
   11   16   12   109.500 108.524   0.251 F   0
   11   16   15   108.600 106.351   0.209 F   0
   12   13   11   120.000 119.179   0.178 F   0
   12   17   11   120.000 118.744   0.243 F   0
   12   17   13   120.000 122.077   0.177 F   0
   17   18   12   115.000 121.030   0.409 F   0
   17   21   12   115.000 121.289   0.333 F   0
   17   21   18   104.000 115.437   0.182 F   0
   18   19   17   109.500 110.552   0.307 F   0
   18   22   17   109.500 109.023   0.253 F   0
   18   22   19   109.500 111.474   0.251 F   0
   18   23   17   109.500 107.612   0.253 F   0
   18   23   19   109.500 109.523   0.251 F   0
   18   23   22   108.600 108.556   0.209 F   0
   19   20   18   120.000 117.406   0.178 F   0
   19   24   18   120.000 123.117   0.243 F   0
   19   24   20   120.000 119.470   0.177 F   0
   24   25   19   115.000 127.946   0.409 F   0
   24   28   19   115.000 119.016   0.334 F   0
   24   28   25   104.000 113.022   0.182 F   0
   25   26   24   109.500 110.992   0.307 F   0
   25   29   24   109.500 108.968   0.253 F   0
   25   29   26   109.500 110.723   0.251 F   0
   25   30   24   109.500 108.482   0.253 F   0
   25   30   26   109.500 109.640   0.251 F   0
   25   30   29   108.600 107.956   0.209 F   0
   26   27   25   120.000 120.347   0.178 F   0
   26   31   25   120.000 117.645   0.245 F   0
   26   31   27   120.000 121.988   0.179 F   0
   31   32   26   113.000 120.878   0.075 F   0
   31   33   26   113.000 123.121   0.230 F   0
   31   33   32   113.000 115.725   0.120 F   0
   32   34   31   145.000 106.536   0.090 F   0
 torsion atoms        nrot   rings    phi0    phi      FC
    3    1    4    2   2      0     180.000   6.288   0.765
    3    1    7    2   2      0     180.000 168.323   1.135
    4    3    5    1   3      0     180.000  99.704   0.024
    4    3    5    7   3      0     180.000  63.328   0.032
    4    3    8    1   3      0     180.000 135.084   0.034
    4    3    8    7   3      0     180.000  61.883   0.045
    4    3    9    1   3      0     180.000  18.153   0.034
    4    3    9    7   3      0     180.000 178.815   0.045
    5    4    6    3   3      0     180.000  54.887   0.066
    5    4    6    8   3      0     180.000 178.834   0.115
    5    4    6    9   3      0     180.000  62.256   0.115
    5    4   10    3   3      0     180.000 125.637   0.041
    5    4   10    8   3      0     180.000   1.690   0.072
    5    4   10    9   3      0     180.000 117.220   0.072
   10    5   11    4   2      0     180.000   0.658   0.614
   10    5   11    6   2      0     180.000 178.809   0.832
   10    5   14    4   2      0     180.000 172.727   0.911
   10    5   14    6   2      0     180.000   6.739   1.234
   11   10   12    5   3      0     180.000 108.551   0.022
   11   10   12   14   3      0     180.000  63.803   0.032
   11   10   15    5   3      0     180.000 128.654   0.032
   11   10   15   14   3      0     180.000  58.991   0.045
   11   10   16    5   3      0     180.000  12.077   0.032
   11   10   16   14   3      0     180.000 175.569   0.045
   12   11   13   10   3      0     180.000  75.294   0.066
   12   11   13   15   3      0     180.000 162.436   0.115
   12   11   13   16   3      0     180.000  46.200   0.115
   12   11   17   10   3      0     180.000 104.757   0.041
   12   11   17   15   3      0     180.000  17.513   0.072
   12   11   17   16   3      0     180.000 133.749   0.072
   17   12   18   11   2      0     180.000 174.113   0.612
   17   12   18   13   2      0     180.000   5.940   0.830
   17   12   21   11   2      0     180.000  11.908   0.909
   17   12   21   13   2      0     180.000 168.144   1.231
   18   17   19   12   3      0     180.000 115.933   0.022
   18   17   19   21   3      0     180.000  47.257   0.032
   18   17   22   12   3      0     180.000 121.192   0.032
   18   17   22   21   3      0     180.000  75.618   0.045
   18   17   23   12   3      0     180.000   3.635   0.032
   18   17   23   21   3      0     180.000 166.825   0.045
   19   18   20   17   3      0     180.000  53.410   0.066
   19   18   20   22   3      0     180.000 174.847   0.115
   19   18   20   23   3      0     180.000  65.000   0.115
   19   18   24   17   3      0     180.000 127.572   0.041
   19   18   24   22   3      0     180.000   6.135   0.072
   19   18   24   23   3      0     180.000 114.018   0.072
   24   19   25   18   2      0     180.000   4.744   0.610
   24   19   25   20   2      0     180.000 176.257   0.827
   24   19   28   18   2      0     180.000 176.827   0.905
   24   19   28   20   2      0     180.000   2.172   1.227
   25   24   26   19   3      0     180.000 174.945   0.022
   25   24   26   28   3      0     180.000   6.548   0.032
   25   24   29   19   3      0     180.000  62.871   0.032
   25   24   29   28   3      0     180.000 115.636   0.045
   25   24   30   19   3      0     180.000  54.425   0.032
   25   24   30   28   3      0     180.000 127.067   0.045
   26   25   27   24   3      0     180.000   1.837   0.066
   26   25   27   29   3      0     180.000 122.994   0.115
   26   25   27   30   3      0     180.000 117.995   0.115
   26   25   31   24   3      0     180.000 179.736   0.041
   26   25   31   29   3      0     180.000  58.579   0.072
   26   25   31   30   3      0     180.000  60.433   0.072
   31   26   32   25   2      0     180.000 179.929   0.129
   31   26   32   27   2      0     180.000   1.671   0.175
   31   26   33   25   2      0     180.000   6.216   0.174
   31   26   33   27   2      0     180.000 175.384   0.235
   32   31   34   26   2      0     180.000  57.541   1.440
   32   31   34   33   2      0     180.000 128.302   2.051
 out-of-plane atoms          phi0    phi      FC
    3    7    1    4          0.000  15.320   0.133
    5    6   10    4          0.000  -0.442  23.906
   10   14    5   11          0.000   6.217   0.128
   12   13   17   11          0.000  -0.046  23.934
   17   21   12   18          0.000  15.182   0.134
   19   20   24   18          0.000  -0.838  23.956
   24   28   19   25          0.000  -1.239   0.143
   26   27   31   25          0.000  -1.417  28.295
   31   33   26   32          0.000   5.393   0.326
          #tors  :   77
          #nmol  :   6
          #optfrag :   6

 GFN-FF setup done.

           ------------------------------------------------- 
          |                   G F N - F F                   |
          |          A general generic force-field          |
          |                  Version 1.0.3                  | 
           ------------------------------------------------- 
      * Solvation model:               ALPB
        Solvent                        water
        Parameter file                 internal GFN-FF/ALPB
        Dielectric constant                8.0200E+01
        Reference state                gsolv [1 M gas/solution]
        Free energy shift                  3.6494E-04 Eh       2.2900E-01 kcal/mol
        Temperature                        2.9815E+02 K
        Density                            1.0000E+00 kg/L
        Solvent mass                       1.8000E+01 g/mol
        Interaction kernel             P16
        Born radius scaling (c1)           1.5056E+00
        Born radii integrator          GBOBC
        Born offset                        0.0000E+00 a0       0.0000E+00 AA
        H-bond correction              true
        Ion screening                  false
        Surface tension                    1.0000E-05 Eh       1.5569E+01 dyn/cm
        Grid points                               230 per atom
          Number of HB bonds (bound hydrogen)     320
          Number of HB bonds (unbound hydrogen)   40
          Number of XB bonds                      0

 E+G (total)                   0 d,  0 h,  0 min,  0.001 sec
 distance/D3 list               ...        0 min,  0.000 sec (  0.291%)
 non bonded repulsion           ...        0 min,  0.000 sec (  1.957%)
 dCN                            ...        0 min,  0.000 sec (  2.690%)
 EEQ energy and q               ...        0 min,  0.000 sec (  4.920%)
 D3                             ...        0 min,  0.000 sec (  7.756%)
 EEQ gradient                   ...        0 min,  0.000 sec (  4.575%)
 bonds                          ...        0 min,  0.000 sec (  0.890%)
 bend and torsion               ...        0 min,  0.000 sec (  4.872%)
 bonded ATM                     ...        0 min,  0.000 sec (  1.509%)
 HB/XB (incl list setup)        ...        0 min,  0.000 sec (  9.425%)
 GBSA                           ...        0 min,  0.000 sec ( 63.567%)

         :::::::::::::::::::::::::::::::::::::::::::::::::::::
         ::                     SUMMARY                     ::
         :::::::::::::::::::::::::::::::::::::::::::::::::::::
         :: total energy              -6.046031812055 Eh    ::
         :: total w/o Gsolv           -6.002571051961 Eh    ::
         :: total w/o Gsasa/hb        -6.038367986631 Eh    ::
         :: gradient norm              0.184503563072 Eh/a0 ::
         ::.................................................::
         :: bond energy               -6.072740813783 Eh    ::
         :: angle energy               0.033814390513 Eh    ::
         :: torsion energy             0.013991772635 Eh    ::
         :: repulsion energy           0.372289067559 Eh    ::
         :: electrostat energy        -0.316999932581 Eh    ::
         :: dispersion energy         -0.022236152965 Eh    ::
         :: HB energy                 -0.001231956351 Eh    ::
         :: XB energy                  0.000000000000 Eh    ::
         :: bonded atm energy         -0.009457426987 Eh    ::
         :: external energy            0.000000000000 Eh    ::
         :: -> Gsolv                  -0.043460760094 Eh    ::
         ::    -> Gborn               -0.035796934670 Eh    ::
         ::    -> Gsasa                0.009439778281 Eh    ::
         ::    -> Ghb                 -0.017468542961 Eh    ::
         ::    -> Gshift               0.000364939255 Eh    ::
         :: add. restraining           0.000000000000 Eh    ::
         :: total charge               0.000000000000 e     ::
         ::.................................................::
         :: atomisation energy         0.000000000000 Eh    ::
         :::::::::::::::::::::::::::::::::::::::::::::::::::::

      ----------------------------------------------------------- 
     |                   =====================                   |
     |                        A N C O P T                        |
     |                   =====================                   |
     |               Approximate Normal Coordinate               |
     |                Rational Function Optimizer                |
      ----------------------------------------------------------- 

          ...................................................
          :                      SETUP                      :
          :.................................................:
          :   optimization level         verytight          :
          :   max. optcycles                    10          :
          :   ANC micro-cycles                  10          :
          :   degrees of freedom                96          :
          :.................................................:
          :   RF solver                   davidson          :
          :   write xtbopt.log                true          :
          :   linear?                        false          :
          :   energy convergence         0.1000000E-06 Eh   :
          :   grad. convergence          0.2000000E-03 Eh/α :
          :   maxmium RF displ.          1.0000000          :
          :   Hlow (freq-cutoff)         0.1000000E-01      :
          :   Hmax (freq-cutoff)         5.0000000          :
          :   S6 in model hess.         20.0000000          :
          ...................................................

generating ANC from model Hessian ...
Using GFN-FF Lindh-Hessian
 Shifting diagonal of input Hessian by    0.0000000000000000     
 Lowest  eigenvalues of input Hessian
    0.000000    0.000000    0.000000    0.000000    0.000000    0.000000
    0.016419    0.022839    0.024495    0.029986    0.046943    0.061259
    0.067408    0.077214    0.080510    0.087291    0.093944    0.100267
 Highest eigenvalues
    3.372743    3.721735    3.790485    3.888577    4.053984    4.387239


........................................................................
.............................. CYCLE    1 ..............................
........................................................................
     iter. time                 ...        0 min,  0.001 sec
 * total energy  :    -6.0460318 Eh     change        0.0000000E+00 Eh
   gradient norm :     0.1845036 Eh/α   predicted     0.0000000E+00 (    NaN%)
   displ. norm   :     0.1841799 α      lambda       -0.1729777E-01
   maximum displ.:     0.0896776 α      in ANC's #18, #17, #9, ...

........................................................................
.............................. CYCLE    2 ..............................
........................................................................
     iter. time                 ...        0 min,  0.001 sec
 * total energy  :    -6.0585284 Eh     change       -0.1249658E-01 Eh
   gradient norm :     0.0791125 Eh/α   predicted    -0.8942376E-02 ( -28.44%)
   displ. norm   :     0.1799395 α      lambda       -0.7983862E-02
   maximum displ.:     0.0870810 α      in ANC's #18, #17, #26, ...

........................................................................
.............................. CYCLE    3 ..............................
........................................................................
     iter. time                 ...        0 min,  0.000 sec
 * total energy  :    -6.0635549 Eh     change       -0.5026493E-02 Eh
   gradient norm :     0.0235354 Eh/α   predicted    -0.4121342E-02 ( -18.01%)
   displ. norm   :     0.1103202 α      lambda       -0.1577348E-02
   maximum displ.:     0.0519231 α      in ANC's #18, #17, #15, ...

........................................................................
.............................. CYCLE    4 ..............................
........................................................................
     iter. time                 ...        0 min,  0.000 sec
 * total energy  :    -6.0645655 Eh     change       -0.1010621E-02 Eh
   gradient norm :     0.0180859 Eh/α   predicted    -0.7982757E-03 ( -21.01%)
   displ. norm   :     0.0460109 α      lambda       -0.4106888E-03
   maximum displ.:     0.0214734 α      in ANC's #49, #18, #50, ...

........................................................................
.............................. CYCLE    5 ..............................
........................................................................
     iter. time                 ...        0 min,  0.000 sec
 * total energy  :    -6.0647722 Eh     change       -0.2066451E-03 Eh
   gradient norm :     0.0073060 Eh/α   predicted    -0.2057892E-03 (  -0.41%)
   displ. norm   :     0.0458412 α      lambda       -0.9416036E-04
   maximum displ.:     0.0295951 α      in ANC's #4, #3, #9, ...

........................................................................
.............................. CYCLE    6 ..............................
........................................................................
     iter. time                 ...        0 min,  0.000 sec
 * total energy  :    -6.0648073 Eh     change       -0.3517267E-04 Eh
   gradient norm :     0.0054785 Eh/α   predicted    -0.4731822E-04 (  34.53%)
   displ. norm   :     0.0083523 α      lambda       -0.2220523E-04
   maximum displ.:     0.0031962 α      in ANC's #1, #35, #18, ...

........................................................................
.............................. CYCLE    7 ..............................
........................................................................
     iter. time                 ...        0 min,  0.000 sec
 * total energy  :    -6.0648220 Eh     change       -0.1462658E-04 Eh
   gradient norm :     0.0019667 Eh/α   predicted    -0.1111251E-04 ( -24.03%)
   displ. norm   :     0.0117580 α      lambda       -0.7436720E-05
   maximum displ.:     0.0046652 α      in ANC's #9, #35, #4, ...

........................................................................
.............................. CYCLE    8 ..............................
........................................................................
     iter. time                 ...        0 min,  0.000 sec
 * total energy  :    -6.0648273 Eh     change       -0.5325559E-05 Eh
   gradient norm :     0.0015199 Eh/α   predicted    -0.3720402E-05 ( -30.14%)
   displ. norm   :     0.0050284 α      lambda       -0.1732802E-05
   maximum displ.:     0.0019444 α      in ANC's #2, #18, #9, ...

........................................................................
.............................. CYCLE    9 ..............................
........................................................................
     iter. time                 ...        0 min,  0.000 sec
 * total energy  :    -6.0648292 Eh     change       -0.1944548E-05 Eh
   gradient norm :     0.0007134 Eh/α   predicted    -0.8853315E-06 ( -54.47%)
   displ. norm   :     0.0062887 α      lambda       -0.1340251E-05
   maximum displ.:     0.0028614 α      in ANC's #35, #2, #18, ...

........................................................................
.............................. CYCLE   10 ..............................
........................................................................
     iter. time                 ...        0 min,  0.000 sec
 * total energy  :    -6.0648305 Eh     change       -0.1305863E-05 Eh
   gradient norm :     0.0005067 Eh/α   predicted    -0.6756765E-06 ( -48.26%)
   displ. norm   :     0.0041880 α      lambda       -0.5513485E-06
   maximum displ.:     0.0022380 α      in ANC's #35, #3, #2, ...

   *** FAILED TO CONVERGE GEOMETRY OPTIMIZATION IN 10 ITERATIONS ***


 ANCopt (total)                0 d,  0 h,  0 min,  0.007 sec
 optimizer setup                ...        0 min,  0.000 sec (  0.890%)
 model hessian                  ...        0 min,  0.000 sec (  3.353%)
 ANC generation                 ...        0 min,  0.001 sec (  9.141%)
 coordinate transformation      ...        0 min,  0.000 sec (  0.425%)
 single point calculation       ...        0 min,  0.005 sec ( 73.571%)
 optimization log               ...        0 min,  0.000 sec (  5.895%)
 hessian update                 ...        0 min,  0.000 sec (  0.671%)
 rational function              ...        0 min,  0.000 sec (  3.778%)

================
 final structure:
================
ATOM      1  C   GLY A  13       1.524  -8.472  -5.819  1.00  0.00           C  
ATOM      2  O   GLY A  13       0.551  -8.388  -6.523  1.00  0.00           O  
ATOM      3  N   GLY A  14       2.778  -8.146  -6.235  1.00  0.00           N  
ATOM      4  CA  GLY A  14       3.003  -7.602  -7.564  1.00  0.00           C  
ATOM      5  C   GLY A  14       3.177  -6.104  -7.519  1.00  0.00           C  
ATOM      6  O   GLY A  14       2.292  -5.464  -6.988  1.00  0.00           O  
ATOM      7  H   GLY A  14       3.548  -8.013  -5.576  1.00  0.00           H  
ATOM      8  HA2 GLY A  14       3.847  -8.108  -8.037  1.00  0.00           H  
ATOM      9  HA3 GLY A  14       2.112  -7.833  -8.160  1.00  0.00           H  
ATOM     10  N   GLY A  15       4.270  -5.430  -8.045  1.00  0.00           N  
ATOM     11  CA  GLY A  15       5.425  -5.991  -8.747  1.00  0.00           C  
ATOM     12  C   GLY A  15       5.402  -5.667 -10.216  1.00  0.00           C  
ATOM     13  O   GLY A  15       4.637  -6.269 -10.939  1.00  0.00           O  
ATOM     14  H   GLY A  15       4.237  -4.413  -8.061  1.00  0.00           H  
ATOM     15  HA2 GLY A  15       6.342  -5.611  -8.287  1.00  0.00           H  
ATOM     16  HA3 GLY A  15       5.450  -7.077  -8.623  1.00  0.00           H  
ATOM     17  N   GLY A  16       6.252  -4.694 -10.700  1.00  0.00           N  
ATOM     18  CA  GLY A  16       6.181  -4.245 -12.081  1.00  0.00           C  
ATOM     19  C   GLY A  16       5.774  -2.798 -12.161  1.00  0.00           C  
ATOM     20  O   GLY A  16       4.766  -2.467 -11.574  1.00  0.00           O  
ATOM     21  H   GLY A  16       6.757  -4.070 -10.069  1.00  0.00           H  
ATOM     22  HA2 GLY A  16       7.143  -4.424 -12.569  1.00  0.00           H  
ATOM     23  HA3 GLY A  16       5.430  -4.862 -12.587  1.00  0.00           H  
ATOM     24  N   GLY A  17       6.490  -1.849 -12.874  1.00  0.00           N  
ATOM     25  CA  GLY A  17       7.757  -2.028 -13.577  1.00  0.00           C  
ATOM     26  C   GLY A  17       8.121  -0.783 -14.313  1.00  0.00           C  
ATOM     27  O   GLY A  17       7.396   0.175 -14.307  1.00  0.00           O  
ATOM     28  H   GLY A  17       6.137  -0.890 -12.918  1.00  0.00           H  
ATOM     29  HA2 GLY A  17       8.532  -2.282 -12.846  1.00  0.00           H  
ATOM     30  HA3 GLY A  17       7.659  -2.861 -14.280  1.00  0.00           H  
ATOM     31  N   ALA A  18       9.333  -0.768 -15.010  1.00  0.00           N  
ATOM     32  CA  ALA A  18       9.705   0.196 -15.909  1.00  0.00           C  
ATOM     33  H   ALA A  18       9.997  -1.550 -14.940  1.00  0.00           H  
ATOM     34  HA  ALA A  18       8.942   0.697 -16.392  1.00  0.00           H  
END

 Bond Distances (Angstroems)
 ---------------------------
C1-O2=1.2045         C1-N3=1.3605         O2-C1=1.2045         N3-C1=1.3605         N3-C4=1.4540         N3-H7=1.0224         
C4-N3=1.4540         C4-C5=1.5080         C4-H8=1.0915         C4-H9=1.0967         C5-C4=1.5080         C5-O6=1.2146         
C5-N10=1.3876        O6-C5=1.2146         H7-N3=1.0224         H8-C4=1.0915         H9-C4=1.0967         N10-C5=1.3876        
N10-C11=1.4645       N10-H14=1.0171       C11-N10=1.4645       C11-C12=1.5043       C11-H15=1.0937       C11-H16=1.0924       
C12-C11=1.5043       C12-O13=1.2124       C12-N17=1.3801       O13-C12=1.2124       H14-N10=1.0171       H15-C11=1.0937       
H16-C11=1.0924       N17-C12=1.3801       N17-C18=1.4535       N17-H21=1.0204       C18-N17=1.4535       C18-C19=1.5053       
C18-H22=1.0932       C18-H23=1.0957       C19-C18=1.5053       C19-O20=1.2137       C19-N24=1.3857       O20-C19=1.2137       
H21-N17=1.0204       H22-C18=1.0932       H23-C18=1.0957       N24-C19=1.3857       N24-C25=1.4603       N24-H28=1.0228       
C25-N24=1.4603       C25-C26=1.4909       C25-H29=1.0955       C25-H30=1.0945       C26-C25=1.4909       C26-O27=1.2014       
C26-N31=1.3978       O27-C26=1.2014       H28-N24=1.0228       H29-C25=1.0955       H30-C25=1.0945       N31-C26=1.3978       
N31-C32=1.3701       N31-H33=1.0281       C32-N31=1.3701       C32-H34=1.0326       H33-N31=1.0281       H34-C32=1.0326       
 C  H  Rav=1.0873 sigma=0.0194  Rmin=1.0326  Rmax=1.0967     9
 C  C  Rav=1.5021 sigma=0.0066  Rmin=1.4909  Rmax=1.5080     4
 N  H  Rav=1.0222 sigma=0.0036  Rmin=1.0171  Rmax=1.0281     5
 N  C  Rav=1.4114 sigma=0.0394  Rmin=1.3605  Rmax=1.4645    10
 O  C  Rav=1.2093 sigma=0.0053  Rmin=1.2014  Rmax=1.2146     5

 selected bond angles (degree)
 --------------------
N3-C1-O2=123.33                C4-N3-C1=120.81                H7-N3-C1=121.87                H7-N3-C4=115.07                
C5-C4-N3=111.23                H8-C4-N3=110.00                H8-C4-C5=112.62                H9-C4-N3=106.97                
H9-C4-C5=108.63                H9-C4-H8=107.14                O6-C5-C4=116.90                N10-C5-C4=124.20               
N10-C5-O6=118.90               C11-N10-C5=128.07              H14-N10-C5=117.84              H14-N10-C11=113.63             

 selected dihedral angles (degree)
 ---------------------------------
C4-N3-C1-O2=  3.24            H7-N3-C1-O2=165.36            C5-C4-N3-C1=100.74            C5-C4-N3-H7=297.47            
H8-C4-N3-C1=226.21            H8-C4-N3-H7= 62.94            H9-C4-N3-C1=342.25            H9-C4-N3-H7=178.98            
O6-C5-C4-N3=305.16            O6-C5-C4-H8=181.15            O6-C5-C4-H9= 62.64            N10-C5-C4-N3=125.46           
N10-C5-C4-H8=  1.46           N10-C5-C4-H9=242.95           C11-N10-C5-C4=  1.17          C11-N10-C5-O6=181.49          
H14-N10-C5-C4=172.84          H14-N10-C5-O6=353.15          
           -------------------------------------------------
          |                Final Singlepoint                |
           -------------------------------------------------
         :::::::::::::::::::::::::::::::::::::::::::::::::::::
         ::                     SUMMARY                     ::
         :::::::::::::::::::::::::::::::::::::::::::::::::::::
         :: total energy              -6.064831162189 Eh    ::
         :: total w/o Gsolv           -6.021972240719 Eh    ::
         :: total w/o Gsasa/hb        -6.057147822162 Eh    ::
         :: gradient norm              0.000488482440 Eh/a0 ::
         ::.................................................::
         :: bond energy               -6.102163443982 Eh    ::
         :: angle energy               0.030370331153 Eh    ::
         :: torsion energy             0.009779160376 Eh    ::
         :: repulsion energy           0.382676313695 Eh    ::
         :: electrostat energy        -0.319282245724 Eh    ::
         :: dispersion energy         -0.022241922417 Eh    ::
         :: HB energy                 -0.001225690985 Eh    ::
         :: XB energy                  0.000000000000 Eh    ::
         :: bonded atm energy         -0.009266036848 Eh    ::
         :: external energy            0.000000000000 Eh    ::
         :: -> Gsolv                  -0.042858921470 Eh    ::
         ::    -> Gborn               -0.035175581443 Eh    ::
         ::    -> Gsasa                0.009464210741 Eh    ::
         ::    -> Ghb                 -0.017512490022 Eh    ::
         ::    -> Gshift               0.000364939255 Eh    ::
         :: add. restraining           0.009381294014 Eh    ::
         :: total charge               0.000000000000 e     ::
         ::.................................................::
         :: atomisation energy         0.000000000000 Eh    ::
         :::::::::::::::::::::::::::::::::::::::::::::::::::::

           -------------------------------------------------
          |                Property Printout                |
           -------------------------------------------------
           -------------------------------------------------
          |                Geometry Summary                 |
           -------------------------------------------------

      molecular mass/u    :      284.2490701
   center of mass at/Å    :        5.2152265      -4.3460487     -10.5411379
  moments of inertia/u·Å² :        0.3424379E+03   0.6481557E+04   0.6612411E+04
rotational constants/cm⁻¹ :        0.4922830E-01   0.2600862E-02   0.2549393E-02

 * 27 selected distances

     #   Z          #   Z                                           value/Å
     1   6  C       3   7  N                                      1.3605345
     3   7  N       4   6  C                                      1.4540363
     5   6  C       6   8  O                                      1.2146013
     3   7  N       7   1  H                                      1.0223737
     4   6  C       8   1  H                                      1.0915168
     4   6  C       9   1  H                                      1.0966656
     5   6  C      10   7  N                                      1.3876276
    10   7  N      11   6  C                                      1.4645480 (max)
    12   6  C      13   8  O                                      1.2123768
    10   7  N      14   1  H                                      1.0170793 (min)
    11   6  C      15   1  H                                      1.0936862
    11   6  C      16   1  H                                      1.0924297
    12   6  C      17   7  N                                      1.3800646
    17   7  N      18   6  C                                      1.4534931
    19   6  C      20   8  O                                      1.2136518
    17   7  N      21   1  H                                      1.0204204
    18   6  C      22   1  H                                      1.0932471
    18   6  C      23   1  H                                      1.0957369
    19   6  C      24   7  N                                      1.3857214
    24   7  N      25   6  C                                      1.4602590
    26   6  C      27   8  O                                      1.2013627
    24   7  N      28   1  H                                      1.0228380
    25   6  C      29   1  H                                      1.0955398
    25   6  C      30   1  H                                      1.0945051
    26   6  C      31   7  N                                      1.3978400
    31   7  N      33   1  H                                      1.0281362
    32   6  C      34   1  H                                      1.0325744

 * 4 distinct bonds (by element types)

   Z      Z             #   av. dist./Å        max./Å        min./Å
   1 H    6 C           9     1.0873224     1.0966656     1.0325744
   1 H    7 N           5     1.0221695     1.0281362     1.0170793
   6 C    7 N           9     1.4160138     1.4645480     1.3605345
   6 C    8 O           4     1.2104981     1.2146013     1.2013627


optimized geometry written to: xtbopt.pdb


           -------------------------------------------------
          | TOTAL ENERGY               -6.064831162189 Eh   |
          | GRADIENT NORM               0.000488482440 Eh/α |
           -------------------------------------------------
########################################################################
[WARNING] Runtime exception occurred
-1- gfnff_setup: Could not read topology file.
########################################################################

------------------------------------------------------------------------
 unit  open   action     filename
   10 false : read       xtb_settings.inp
   10 false : read       substructure_25.pdb
   10 false : read       xtb_settings.inp
   10 false : written    gfnff_topo
   10 false : written    gfnff_adjacency
   10 false : written    gfnff_charges
   10 false : deleted    .xtboptok
   10 false : replaced   xtbopt.log
   11 false : created    .xtboptok
   11 false : replaced   gfnff_charges
   10 false : replaced   xtbopt.pdb

------------------------------------------------------------------------
 * finished run on 2025/05/27 at 09:37:42.806     
------------------------------------------------------------------------
 total:
 * wall-time:     0 d,  0 h,  0 min,  0.011 sec
 *  cpu-time:     0 d,  0 h,  0 min,  0.011 sec
 * ratio c/w:     1.000 speedup
 SCF:
 * wall-time:     0 d,  0 h,  0 min,  0.001 sec
 *  cpu-time:     0 d,  0 h,  0 min,  0.001 sec
 * ratio c/w:     1.000 speedup
 ANC optimizer:
 * wall-time:     0 d,  0 h,  0 min,  0.008 sec
 *  cpu-time:     0 d,  0 h,  0 min,  0.008 sec
 * ratio c/w:     1.000 speedup

