      -----------------------------------------------------------      
     |                   =====================                   |     
     |                           x T B                           |     
     |                   =====================                   |     
     |                         S. Grimme                         |     
     |          Mulliken Center for Theoretical Chemistry        |     
     |                    University of Bonn                     |     
      -----------------------------------------------------------      

   * xtb version 6.6.1 (8d0f1dd) compiled by 'conda@1efc2f54142f' on 2023-08-01

   xtb is free software: you can redistribute it and/or modify it under
   the terms of the GNU Lesser General Public License as published by
   the Free Software Foundation, either version 3 of the License, or
   (at your option) any later version.
   
   xtb is distributed in the hope that it will be useful,
   but WITHOUT ANY WARRANTY; without even the implied warranty of
   MERCHANTABILITY or FITNESS FOR A PARTICULAR PURPOSE.  See the
   GNU Lesser General Public License for more details.
   
   Cite this work as:
   * C. Bannwarth, E. Caldeweyher, S. Ehlert, A. Hansen, P. Pracht,
     J. Seibert, S. Spicher, S. Grimme, WIREs Comput. Mol. Sci., 2020, 11,
     e01493. DOI: 10.1002/wcms.1493
   
   for GFN2-xTB:
   * C. Bannwarth, S. Ehlert and S. Grimme., J. Chem. Theory Comput., 2019,
     15, 1652-1671. DOI: 10.1021/acs.jctc.8b01176
   for GFN1-xTB:
   * S. Grimme, C. Bannwarth, P. Shushkov, J. Chem. Theory Comput., 2017,
     13, 1989-2009. DOI: 10.1021/acs.jctc.7b00118
   for GFN0-xTB:
   * P. Pracht, E. Caldeweyher, S. Ehlert, S. Grimme, ChemRxiv, 2019, preprint.
     DOI: 10.26434/chemrxiv.8326202.v1
   for GFN-FF:
   * S. Spicher and S. Grimme, Angew. Chem. Int. Ed., 2020, 59, 15665-15673.
     DOI: 10.1002/anie.202004239
   
   for ALPB and GBSA implicit solvation:
   * S. Ehlert, M. Stahn, S. Spicher, S. Grimme, J. Chem. Theory Comput.,
     2021, 17, 4250-4261. DOI: 10.1021/acs.jctc.1c00471
   
   for DFT-D4:
   * E. Caldeweyher, C. Bannwarth and S. Grimme, J. Chem. Phys., 2017,
     147, 034112. DOI: 10.1063/1.4993215
   * E. Caldeweyher, S. Ehlert, A. Hansen, H. Neugebauer, S. Spicher,
     C. Bannwarth and S. Grimme, J. Chem. Phys., 2019, 150, 154122.
     DOI: 10.1063/1.5090222
   * E. Caldeweyher, J.-M. Mewes, S. Ehlert and S. Grimme, Phys. Chem. Chem. Phys.
     2020, 22, 8499-8512. DOI: 10.1039/D0CP00502A
   
   for sTDA-xTB:
   * S. Grimme and C. Bannwarth, J. Chem. Phys., 2016, 145, 054103.
     DOI: 10.1063/1.4959605
   
   in the mass-spec context:
   * V. Asgeirsson, C. Bauer and S. Grimme, Chem. Sci., 2017, 8, 4879.
     DOI: 10.1039/c7sc00601b
   * J. Koopman and S. Grimme, ACS Omega 2019, 4, 12, 15120-15133.
     DOI: 10.1021/acsomega.9b02011
   
   for metadynamics refer to:
   * S. Grimme, J. Chem. Theory Comput., 2019, 155, 2847-2862
     DOI: 10.1021/acs.jctc.9b00143
   
   for SPH calculations refer to:
   * S. Spicher and S. Grimme, J. Chem. Theory Comput., 2021, 17, 1701-1714
     DOI: 10.1021/acs.jctc.0c01306
   
   with help from (in alphabetical order)
   P. Atkinson, C. Bannwarth, F. Bohle, G. Brandenburg, E. Caldeweyher
   M. Checinski, S. Dohm, S. Ehlert, S. Ehrlich, I. Gerasimov, C. Hölzer
   A. Katbashev, J. Koopman, C. Lavigne, S. Lehtola, F. März, M. Müller,
   F. Musil, H. Neugebauer, J. Pisarek, C. Plett, P. Pracht, F. Pultar,
   J. Seibert, P. Shushkov, S. Spicher, M. Stahn, M. Steiner, T. Strunk,
   J. Stückrath, T. Rose, and J. Unsleber
   
 * started run on 2025/05/27 at 09:37:52.279     

           -------------------------------------------------
          |                Calculation Setup                |
           -------------------------------------------------

          program call               : xtb substructure_53.pdb --gfnff --input xtb_settings.inp --opt vtight --alpb water --verbose
          coordinate file            : substructure_53.pdb
          xtbhome directory          : /home/dargen3
          path for xtb               : /home/dargen3
          xcontrol input file        : xtb_settings.inp
          omp threads                :                     1

$$$$$$$$$$$$$$$$$$$$$$$$$$$$$$$$$$$$$$$$$$$$$$$$$$$$$$$$$$$$$$$$$$$$$$$$
 CONSTRAINTS & SCANS: DEBUG SECTION
$$$$$$$$$$$$$$$$$$$$$$$$$$$$$$$$$$$$$$$$$$$$$$$$$$$$$$$$$$$$$$$$$$$$$$$$
   ID    Z sym.   atoms
    1    6  C     1, 4, 5, 11, 12, 18, 19, 25, 26, 32
    2    8  O     2, 6, 13, 20, 27
    3    7  N     3, 10, 17, 24, 31
    4    1  H     7-9, 14-16, 21-23, 28-30, 33, 34
> constrain
-> atoms: 1, 2, 3, 4, 5, 6, 7, 8, 9, 10, 11, 12, 13, 14, 15, 16, 18, 24, 25, 26, 27, 28, 29, 30, 31, 32, 33, 34
--> 1: 1
--> 2: 2
--> 3: 3
--> 4: 4
--> 5: 5
--> 6: 6
--> 7: 7
--> 8: 8
--> 9: 9
--> 10: 10
--> 11: 11
--> 12: 12
--> 13: 13
--> 14: 14
--> 15: 15
--> 16: 16
--> 17: 18
--> 18: 24
--> 19: 25
--> 20: 26
--> 21: 27
--> 22: 28
--> 23: 29
--> 24: 30
--> 25: 31
--> 26: 32
--> 27: 33
--> 28: 34
-> force constant=1.0
$$$$$$$$$$$$$$$$$$$$$$$$$$$$$$$$$$$$$$$$$$$$$$$$$$$$$$$$$$$$$$$$$$$$$$$$
           -------------------------------------------------
          |                   Constraints                   |
           -------------------------------------------------

 * 28 constrained atom positions
   positions refering to input geometry

     #   Z                                   position/Å      displ./Å
     1   6 C      1.5280001    -8.4970008    -5.8090005     0.0000000
     2   8 O      0.5930001    -8.5450008    -6.5790006     0.0000000
     3   7 N      2.7860003    -8.1070008    -6.2210006     0.0000000
     4   6 C      3.0050003    -7.6070007    -7.5660007     0.0000000
     5   6 C      3.1550003    -6.1020006    -7.5610007     0.0000000
     6   8 O      2.2440002    -5.4590005    -7.0800007     0.0000000
     7   1 H      3.5240003    -7.8970007    -5.5480005     0.0000000
     8   1 H      3.8580004    -8.1090008    -8.0150007     0.0000000
     9   1 H      2.1200002    -7.8640007    -8.1550008     0.0000000
    10   7 N      4.2580004    -5.4290005    -8.0690007     0.0000000
    11   6 C      5.4280005    -5.9890006    -8.7440008     0.0000000
    12   6 C      5.4140005    -5.6780005   -10.2210009     0.0000000
    13   8 O      4.6350004    -6.2670006   -10.9400010     0.0000000
    14   1 H      4.2080004    -4.4150004    -8.1260008     0.0000000
    15   1 H      6.3340006    -5.6050005    -8.2820008     0.0000000
    16   1 H      5.4520005    -7.0780007    -8.6170008     0.0000000
    18   6 C      6.1780006    -4.2520004   -12.0880011     0.0000000
    24   7 N      6.5090006    -1.8430002   -12.8510012     0.0000000
    25   6 C      7.7600007    -2.0220002   -13.5740013     0.0000000
    26   6 C      8.1720008    -0.7720001   -14.2620013     0.0000000
    27   8 O      7.5670007     0.2590000   -14.0620013     0.0000000
    28   1 H      6.2150006    -0.8640001   -12.8080012     0.0000000
    29   1 H      8.5360008    -2.3430002   -12.8690012     0.0000000
    30   1 H      7.6260007    -2.8290003   -14.3130013     0.0000000
    31   7 N      9.2540009    -0.8280001   -15.1060014     0.0000000
    32   6 C      9.7400009     0.3630000   -15.7630015     0.0000000
    33   1 H      9.8640009    -1.6510002   -15.1760014     0.0000000
    34   1 H      8.9010008     0.7550001   -16.3610015     0.0000000

     applying 378 atom pairwise harmonic potentials
       applied force constant per pair:     0.0370370
     effective force constant per atom:     1.0000000
         constraining energy/grad norm:     0.0000000     0.0000000

     total constraint energy/grad norm:     0.0000000     0.0000000

          charge from pdb residues: 0

          entering GFN-FF setup routine... 34

          ==================== Thresholds ====================
          CN  :   150.00000
          rep :   500.00000
          disp:  2500.00000
          HB1 :   250.00000
          HB2 :   450.00000

          Pauling EN used:
          Z : 1  EN :  2.20
          Z : 6  EN :  2.55
          Z : 7  EN :  3.04
          Z : 8  EN :  3.44
          electric field strengths (au): 0.000

           ------------------------------------------------- 
          |           Force Field Initialization            |
           ------------------------------------------------- 

          distances ...
          ----------------------------------------
          generating topology and atomic info file ...
          pair mat ...
          computing topology distances matrix with Floyd-Warshall algo ...
          making topology EEQ charges ...
          #fragments for EEQ constrain from pdb file: 6
          ----------------------------------------
          generating topology and atomic info file ...
          pair mat ...
          computing topology distances matrix with Floyd-Warshall algo ...
          making topology EEQ charges ...
          #fragments for EEQ constrain from pdb file: 6
          rings ...
          # BATM   262
          # H in HB   14
          doing iterative Hueckel for 5 subsystem(s) ...
          iterative Hueckel run to get P ...
Hueckel system :  1 charge :   0 ndim/Nel :    3    3   eps(HOMO/LUMO)   -0.953556   -0.953556
Hueckel system :  2 charge :   0 ndim/Nel :    3    4   eps(HOMO/LUMO)   -0.911792   -0.911792
Hueckel system :  3 charge :   0 ndim/Nel :    3    4   eps(HOMO/LUMO)   -0.912294   -0.912294
Hueckel system :  4 charge :   0 ndim/Nel :    3    4   eps(HOMO/LUMO)   -0.913320   -0.913320
Hueckel system :  5 charge :   0 ndim/Nel :    4    4   eps(HOMO/LUMO)   -2.208693    2.531636

  atom   neighbors  erfCN metchar sp-hybrid imet pi  qest     coordinates
    1   C      2    1.93   0.00        -2    0    1   0.120    2.887502  -16.057003  -10.977419
    2   O      1    0.98   0.00         2    0    1  -0.120    1.120608  -16.147710  -12.432508
    3   N      3    2.79   0.00        -3    0    1  -0.166    5.264777  -15.320010  -11.755986
    4   C      4    3.49   0.00         3    0    0   0.005    5.678627  -14.375147  -14.297668
    5   C      3    2.79   0.00         2    0    1   0.174    5.962086  -11.531109  -14.288219
    6   O      1    0.98   0.00         2    0    1  -0.352    4.240545  -10.316015  -13.379261
    7   H      1    0.98   0.00         0    0    0   0.153    6.659395  -14.923167  -10.484201
    8   H      1    0.97   0.00         0    0    0   0.093    7.290563  -15.323789  -15.146155
    9   H      1    0.97   0.00         0    0    0   0.093    4.006219  -14.860806  -15.410717
   10   N      3    2.79   0.00        -3    0    1  -0.167    8.046454  -10.259323  -15.248200
   11   C      4    3.49   0.00         3    0    0   0.005   10.257433  -11.317570  -16.523765
   12   C      3    2.79   0.00         2    0    1   0.175   10.230977  -10.729865  -19.314891
   13   O      1    0.98   0.00         2    0    1  -0.353    8.758881  -11.842914  -20.673604
   14   H      1    0.98   0.00         0    0    0   0.155    7.951968   -8.343141  -15.355914
   15   H      1    0.97   0.00         0    0    0   0.093   11.969525  -10.591915  -15.650712
   16   H      1    0.97   0.00         0    0    0   0.093   10.302787  -13.375482  -16.283770
   17   N      3    2.79   0.00        -3    0    1  -0.166   11.875039   -8.927066  -20.238967
   18   C      4    3.49   0.00         3    0    0   0.004   11.674728   -8.035115  -22.843009
   19   C      3    2.79   0.00         2    0    1   0.175   10.984978   -5.262887  -22.884583
   20   O      1    0.98   0.00         2    0    1  -0.353    9.174620   -4.607152  -21.641144
   21   H      1    0.98   0.00         0    0    0   0.152   12.835020   -7.753546  -19.048439
   22   H      1    0.97   0.00         0    0    0   0.094   13.460519   -8.384715  -23.814329
   23   H      1    0.97   0.00         0    0    0   0.094   10.200742   -9.125487  -23.761416
   24   N      3    2.79   0.00        -3    0    1  -0.164   12.300227   -3.482765  -24.284870
   25   C      4    3.49   0.00         3    0    0   0.006   14.664275   -3.821026  -25.651142
   26   C      3    2.80   0.00         2    0    1   0.171   15.442842   -1.458869  -26.951274
   27   O      1    0.98   0.00         2    0    1  -0.351   14.299558    0.489439  -26.573329
   28   H      1    0.98   0.00         0    0    0   0.150   11.744648   -1.632723  -24.203612
   29   H      1    0.97   0.00         0    0    0   0.094   16.130702   -4.427628  -24.318885
   30   H      1    0.97   0.01         0    0    0   0.094   14.411051   -5.346035  -27.047650
   31   N      3    2.79   0.00         3    0    1  -0.058   17.487526   -1.564693  -28.546203
   32   C      2    1.92   0.00        -2    0    1  -0.249   18.405932    0.685971  -29.787753
   33   H      1    0.98   0.00         0    0    0   0.122   18.640258   -3.119938  -28.678484
   34   H      1    0.97   0.01         0    0    0   0.185   16.820452    1.426743  -30.917809

molecular fragment  # atoms  topo charge
       1             2             0.000
       2             7             0.000
       3             7            -0.000
       4             7            -0.000
       5             7            -0.000
       6             4            -0.000


          #atoms :   34
          #bonds :   33

 bond atoms        type  in ring    R      R0    piBO    fqq  kbond(tot)  alp
 O  C     2    1      2    0     1.212   0.996   0.799   1.047  -0.252   0.584
 N  C     3    1      2    0     1.380   1.214   0.504   1.047  -0.235   0.524
 C  N     4    3      1    0     1.452   1.326 -99.000   1.033  -0.151   0.496
 C  C     5    4      1    0     1.512   1.332 -99.000   1.013  -0.162   0.475
 O  C     6    5      2    0     1.214   1.031   0.856   1.047  -0.262   0.584
 H  N     7    3      1    0     1.021   0.890 -99.000   1.047  -0.176   0.551
 H  C     8    4      1    0     1.087   0.977 -99.000   1.018  -0.164   0.482
 H  C     9    4      1    0     1.094   0.976 -99.000   1.018  -0.164   0.482
 N  C    10    5      2    0     1.388   1.263   0.503   1.047  -0.234   0.524
 C  N    11   10      1    0     1.462   1.325 -99.000   1.034  -0.151   0.496
 C  C    12   11      1    0     1.509   1.332 -99.000   1.013  -0.162   0.475
 O  C    13   12      2    0     1.213   1.031   0.856   1.047  -0.262   0.584
 H  N    14   10      1    0     1.017   0.890 -99.000   1.047  -0.176   0.551
 H  C    15   11      1    0     1.087   0.976 -99.000   1.018  -0.164   0.482
 H  C    16   11      1    0     1.097   0.976 -99.000   1.018  -0.164   0.482
 N  C    17   12      2    0     1.381   1.263   0.503   1.047  -0.234   0.524
 C  N    18   17      1    0     1.460   1.326 -99.000   1.032  -0.151   0.496
 C  C    19   18      1    0     1.512   1.332 -99.000   1.014  -0.162   0.475
 O  C    20   19      2    0     1.213   1.031   0.857   1.047  -0.262   0.584
 H  N    21   17      1    0     1.020   0.890 -99.000   1.047  -0.176   0.551
 H  C    22   18      1    0     1.092   0.976 -99.000   1.018  -0.164   0.482
 H  C    23   18      1    0     1.085   0.977 -99.000   1.018  -0.164   0.482
 N  C    24   19      2    0     1.386   1.263   0.503   1.047  -0.234   0.524
 C  N    25   24      1    0     1.456   1.326 -99.000   1.034  -0.151   0.496
 C  C    26   25      1    0     1.485   1.332 -99.000   1.013  -0.162   0.475
 O  C    27   26      2    0     1.212   1.014   0.951   1.047  -0.278   0.584
 H  N    28   24      1    0     1.023   0.890 -99.000   1.047  -0.176   0.551
 H  C    29   25      1    0     1.096   0.976 -99.000   1.017  -0.164   0.482
 H  C    30   25      1    0     1.102   0.976 -99.000   1.017  -0.164   0.482
 N  C    31   26      2    0     1.373   1.302   0.285   1.047  -0.191   0.524
 C  N    32   31      2    0     1.444   1.153   0.841   1.000  -0.287   0.524
 H  N    33   31      1    0     1.027   0.890 -99.000   1.047  -0.176   0.551
 H  C    34   32      1    0     1.102   0.903 -99.000   1.047  -0.182   0.490
          #angl  :   53

 angle atoms        phi0    phi      FC  pi rings
    1    3    2   145.000 121.647   0.082 F   0
    3    4    1   115.000 120.765   0.411 F   0
    3    7    1   115.000 121.362   0.335 F   0
    3    7    4   104.000 115.533   0.182 F   0
    4    5    3   109.500 110.773   0.307 F   0
    4    8    3   109.500 110.006   0.253 F   0
    4    8    5   109.500 112.528   0.251 F   0
    4    9    3   109.500 107.216   0.253 F   0
    4    9    5   109.500 108.412   0.251 F   0
    4    9    8   108.600 107.702   0.209 F   0
    5    6    4   120.000 116.987   0.178 F   0
    5   10    4   120.000 124.051   0.243 F   0
    5   10    6   120.000 118.963   0.177 F   0
   10   11    5   115.000 128.239   0.409 F   0
   10   14    5   115.000 117.699   0.333 F   0
   10   14   11   104.000 113.290   0.182 F   0
   11   12   10   109.500 111.430   0.307 F   0
   11   15   10   109.500 109.597   0.253 F   0
   11   15   12   109.500 110.537   0.251 F   0
   11   16   10   109.500 110.143   0.253 F   0
   11   16   12   109.500 108.549   0.251 F   0
   11   16   15   108.600 106.459   0.209 F   0
   12   13   11   120.000 119.079   0.178 F   0
   12   17   11   120.000 118.888   0.243 F   0
   12   17   13   120.000 122.032   0.177 F   0
   17   18   12   115.000 120.782   0.409 F   0
   17   21   12   115.000 121.045   0.333 F   0
   17   21   18   104.000 114.969   0.182 F   0
   18   19   17   109.500 110.172   0.307 F   0
   18   22   17   109.500 109.069   0.253 F   0
   18   22   19   109.500 111.507   0.251 F   0
   18   23   17   109.500 107.632   0.253 F   0
   18   23   19   109.500 109.627   0.251 F   0
   18   23   22   108.600 108.741   0.209 F   0
   19   20   18   120.000 117.412   0.178 F   0
   19   24   18   120.000 123.096   0.243 F   0
   19   24   20   120.000 119.488   0.177 F   0
   24   25   19   115.000 127.838   0.409 F   0
   24   28   19   115.000 118.921   0.334 F   0
   24   28   25   104.000 112.670   0.182 F   0
   25   26   24   109.500 111.404   0.307 F   0
   25   29   24   109.500 108.954   0.253 F   0
   25   29   26   109.500 110.361   0.251 F   0
   25   30   24   109.500 108.569   0.253 F   0
   25   30   26   109.500 109.835   0.251 F   0
   25   30   29   108.600 107.622   0.209 F   0
   26   27   25   120.000 120.070   0.178 F   0
   26   31   25   120.000 117.965   0.245 F   0
   26   31   27   120.000 121.962   0.179 F   0
   31   32   26   113.000 120.730   0.075 F   0
   31   33   26   113.000 122.861   0.230 F   0
   31   33   32   113.000 115.467   0.120 F   0
   32   34   31   145.000 106.492   0.090 F   0
 torsion atoms        nrot   rings    phi0    phi      FC
    3    1    4    2   2      0     180.000   6.387   0.765
    3    1    7    2   2      0     180.000 168.244   1.135
    4    3    5    1   3      0     180.000 103.622   0.024
    4    3    5    7   3      0     180.000  59.239   0.032
    4    3    8    1   3      0     180.000 131.335   0.034
    4    3    8    7   3      0     180.000  65.804   0.045
    4    3    9    1   3      0     180.000  14.490   0.034
    4    3    9    7   3      0     180.000 177.351   0.045
    5    4    6    3   3      0     180.000  56.592   0.066
    5    4    6    8   3      0     180.000 179.803   0.115
    5    4    6    9   3      0     180.000  60.789   0.115
    5    4   10    3   3      0     180.000 123.474   0.041
    5    4   10    8   3      0     180.000   0.130   0.072
    5    4   10    9   3      0     180.000 119.144   0.072
   10    5   11    4   2      0     180.000   3.103   0.614
   10    5   11    6   2      0     180.000 176.829   0.832
   10    5   14    4   2      0     180.000 172.291   0.911
   10    5   14    6   2      0     180.000   7.641   1.234
   11   10   12    5   3      0     180.000 107.873   0.022
   11   10   12   14   3      0     180.000  61.709   0.032
   11   10   15    5   3      0     180.000 129.459   0.032
   11   10   15   14   3      0     180.000  60.959   0.045
   11   10   16    5   3      0     180.000  12.657   0.032
   11   10   16   14   3      0     180.000 177.761   0.045
   12   11   13   10   3      0     180.000  73.441   0.066
   12   11   13   15   3      0     180.000 164.433   0.115
   12   11   13   16   3      0     180.000  48.020   0.115
   12   11   17   10   3      0     180.000 106.140   0.041
   12   11   17   15   3      0     180.000  15.987   0.072
   12   11   17   16   3      0     180.000 132.399   0.072
   17   12   18   11   2      0     180.000 171.162   0.612
   17   12   18   13   2      0     180.000   8.405   0.830
   17   12   21   11   2      0     180.000  12.404   0.909
   17   12   21   13   2      0     180.000 167.164   1.231
   18   17   19   12   3      0     180.000 115.488   0.022
   18   17   19   21   3      0     180.000  44.489   0.032
   18   17   22   12   3      0     180.000 121.813   0.032
   18   17   22   21   3      0     180.000  78.211   0.045
   18   17   23   12   3      0     180.000   4.001   0.032
   18   17   23   21   3      0     180.000 163.977   0.045
   19   18   20   17   3      0     180.000  51.313   0.066
   19   18   20   22   3      0     180.000 172.569   0.115
   19   18   20   23   3      0     180.000  66.957   0.115
   19   18   24   17   3      0     180.000 129.424   0.041
   19   18   24   22   3      0     180.000   8.168   0.072
   19   18   24   23   3      0     180.000 112.307   0.072
   24   19   25   18   2      0     180.000   8.433   0.610
   24   19   25   20   2      0     180.000 172.318   0.827
   24   19   28   18   2      0     180.000 179.090   0.905
   24   19   28   20   2      0     180.000   1.661   1.227
   25   24   26   19   3      0     180.000 179.181   0.022
   25   24   26   28   3      0     180.000   9.678   0.032
   25   24   29   19   3      0     180.000  58.831   0.032
   25   24   29   28   3      0     180.000 112.310   0.045
   25   24   30   19   3      0     180.000  58.108   0.032
   25   24   30   28   3      0     180.000 130.751   0.045
   26   25   27   24   3      0     180.000   7.798   0.066
   26   25   27   29   3      0     180.000 113.373   0.115
   26   25   27   30   3      0     180.000 128.128   0.115
   26   25   31   24   3      0     180.000 172.885   0.041
   26   25   31   29   3      0     180.000  65.944   0.072
   26   25   31   30   3      0     180.000  52.555   0.072
   31   26   32   25   2      0     180.000 177.433   0.129
   31   26   32   27   2      0     180.000   1.870   0.175
   31   26   33   25   2      0     180.000   9.046   0.174
   31   26   33   27   2      0     180.000 170.258   0.235
   32   31   34   26   2      0     180.000  58.895   1.440
   32   31   34   33   2      0     180.000 131.899   2.051
 out-of-plane atoms          phi0    phi      FC
    3    7    1    4          0.000  15.520   0.133
    5    6   10    4          0.000  -0.056  23.906
   10   14    5   11          0.000   8.473   0.128
   12   13   17   11          0.000   0.378  23.934
   17   21   12   18          0.000  18.135   0.134
   19   20   24   18          0.000  -0.629  23.956
   24   28   19   25          0.000  -7.366   0.143
   26   27   31   25          0.000   0.615  28.295
   31   33   26   32          0.000   9.964   0.326
          #tors  :   77
          #nmol  :   6
          #optfrag :   6

 GFN-FF setup done.

           ------------------------------------------------- 
          |                   G F N - F F                   |
          |          A general generic force-field          |
          |                  Version 1.0.3                  | 
           ------------------------------------------------- 
      * Solvation model:               ALPB
        Solvent                        water
        Parameter file                 internal GFN-FF/ALPB
        Dielectric constant                8.0200E+01
        Reference state                gsolv [1 M gas/solution]
        Free energy shift                  3.6494E-04 Eh       2.2900E-01 kcal/mol
        Temperature                        2.9815E+02 K
        Density                            1.0000E+00 kg/L
        Solvent mass                       1.8000E+01 g/mol
        Interaction kernel             P16
        Born radius scaling (c1)           1.5056E+00
        Born radii integrator          GBOBC
        Born offset                        0.0000E+00 a0       0.0000E+00 AA
        H-bond correction              true
        Ion screening                  false
        Surface tension                    1.0000E-05 Eh       1.5569E+01 dyn/cm
        Grid points                               230 per atom
          Number of HB bonds (bound hydrogen)     321
          Number of HB bonds (unbound hydrogen)   40
          Number of XB bonds                      0

 E+G (total)                   0 d,  0 h,  0 min,  0.001 sec
 distance/D3 list               ...        0 min,  0.000 sec (  0.474%)
 non bonded repulsion           ...        0 min,  0.000 sec (  1.960%)
 dCN                            ...        0 min,  0.000 sec (  2.784%)
 EEQ energy and q               ...        0 min,  0.000 sec (  4.611%)
 D3                             ...        0 min,  0.000 sec (  7.653%)
 EEQ gradient                   ...        0 min,  0.000 sec (  4.164%)
 bonds                          ...        0 min,  0.000 sec (  0.917%)
 bend and torsion               ...        0 min,  0.000 sec (  3.898%)
 bonded ATM                     ...        0 min,  0.000 sec (  1.509%)
 HB/XB (incl list setup)        ...        0 min,  0.000 sec ( 10.709%)
 GBSA                           ...        0 min,  0.000 sec ( 63.366%)

         :::::::::::::::::::::::::::::::::::::::::::::::::::::
         ::                     SUMMARY                     ::
         :::::::::::::::::::::::::::::::::::::::::::::::::::::
         :: total energy              -6.046326495713 Eh    ::
         :: total w/o Gsolv           -6.003473046227 Eh    ::
         :: total w/o Gsasa/hb        -6.038695830564 Eh    ::
         :: gradient norm              0.184965856602 Eh/a0 ::
         ::.................................................::
         :: bond energy               -6.072524415805 Eh    ::
         :: angle energy               0.033044983085 Eh    ::
         :: torsion energy             0.014306257971 Eh    ::
         :: repulsion energy           0.372603513694 Eh    ::
         :: electrostat energy        -0.317778745818 Eh    ::
         :: dispersion energy         -0.022258177563 Eh    ::
         :: HB energy                 -0.001277573008 Eh    ::
         :: XB energy                  0.000000000000 Eh    ::
         :: bonded atm energy         -0.009588888783 Eh    ::
         :: external energy            0.000000000000 Eh    ::
         :: -> Gsolv                  -0.042853449486 Eh    ::
         ::    -> Gborn               -0.035222784337 Eh    ::
         ::    -> Gsasa                0.009391209024 Eh    ::
         ::    -> Ghb                 -0.017386813427 Eh    ::
         ::    -> Gshift               0.000364939255 Eh    ::
         :: add. restraining           0.000000000000 Eh    ::
         :: total charge              -0.000000000000 e     ::
         ::.................................................::
         :: atomisation energy         0.000000000000 Eh    ::
         :::::::::::::::::::::::::::::::::::::::::::::::::::::

      ----------------------------------------------------------- 
     |                   =====================                   |
     |                        A N C O P T                        |
     |                   =====================                   |
     |               Approximate Normal Coordinate               |
     |                Rational Function Optimizer                |
      ----------------------------------------------------------- 

          ...................................................
          :                      SETUP                      :
          :.................................................:
          :   optimization level         verytight          :
          :   max. optcycles                    10          :
          :   ANC micro-cycles                  10          :
          :   degrees of freedom                96          :
          :.................................................:
          :   RF solver                   davidson          :
          :   write xtbopt.log                true          :
          :   linear?                        false          :
          :   energy convergence         0.1000000E-06 Eh   :
          :   grad. convergence          0.2000000E-03 Eh/α :
          :   maxmium RF displ.          1.0000000          :
          :   Hlow (freq-cutoff)         0.1000000E-01      :
          :   Hmax (freq-cutoff)         5.0000000          :
          :   S6 in model hess.         20.0000000          :
          ...................................................

generating ANC from model Hessian ...
Using GFN-FF Lindh-Hessian
 Shifting diagonal of input Hessian by    0.0000000000000000     
 Lowest  eigenvalues of input Hessian
    0.000000    0.000000    0.000000    0.000000    0.000000    0.000000
    0.016348    0.022610    0.023830    0.030037    0.046243    0.060668
    0.065732    0.076646    0.082065    0.086897    0.093576    0.099259
 Highest eigenvalues
    3.367034    3.726551    3.781389    3.885434    4.045823    4.390971


........................................................................
.............................. CYCLE    1 ..............................
........................................................................
     iter. time                 ...        0 min,  0.001 sec
 * total energy  :    -6.0463265 Eh     change        0.0000000E+00 Eh
   gradient norm :     0.1849659 Eh/α   predicted     0.0000000E+00 (    NaN%)
   displ. norm   :     0.1901355 α      lambda       -0.1785841E-01
   maximum displ.:     0.0964957 α      in ANC's #18, #17, #26, ...

........................................................................
.............................. CYCLE    2 ..............................
........................................................................
     iter. time                 ...        0 min,  0.001 sec
 * total energy  :    -6.0592995 Eh     change       -0.1297300E-01 Eh
   gradient norm :     0.0809788 Eh/α   predicted    -0.9252057E-02 ( -28.68%)
   displ. norm   :     0.1907938 α      lambda       -0.8560307E-02
   maximum displ.:     0.0949816 α      in ANC's #18, #17, #15, ...

........................................................................
.............................. CYCLE    3 ..............................
........................................................................
     iter. time                 ...        0 min,  0.000 sec
 * total energy  :    -6.0647460 Eh     change       -0.5446522E-02 Eh
   gradient norm :     0.0246966 Eh/α   predicted    -0.4436080E-02 ( -18.55%)
   displ. norm   :     0.1196016 α      lambda       -0.1832963E-02
   maximum displ.:     0.0580496 α      in ANC's #18, #17, #15, ...

........................................................................
.............................. CYCLE    4 ..............................
........................................................................
     iter. time                 ...        0 min,  0.000 sec
 * total energy  :    -6.0659309 Eh     change       -0.1184919E-02 Eh
   gradient norm :     0.0194578 Eh/α   predicted    -0.9295932E-03 ( -21.55%)
   displ. norm   :     0.0525872 α      lambda       -0.5155927E-03
   maximum displ.:     0.0219742 α      in ANC's #50, #49, #18, ...

........................................................................
.............................. CYCLE    5 ..............................
........................................................................
     iter. time                 ...        0 min,  0.000 sec
 * total energy  :    -6.0661957 Eh     change       -0.2648076E-03 Eh
   gradient norm :     0.0080764 Eh/α   predicted    -0.2585108E-03 (  -2.38%)
   displ. norm   :     0.0579440 α      lambda       -0.1338547E-03
   maximum displ.:     0.0357068 α      in ANC's #4, #3, #1, ...

........................................................................
.............................. CYCLE    6 ..............................
........................................................................
     iter. time                 ...        0 min,  0.000 sec
 * total energy  :    -6.0662389 Eh     change       -0.4318967E-04 Eh
   gradient norm :     0.0074386 Eh/α   predicted    -0.6727007E-04 (  55.75%)
   displ. norm   :     0.0119491 α      lambda       -0.3934720E-04
   maximum displ.:     0.0048611 α      in ANC's #18, #1, #15, ...

........................................................................
.............................. CYCLE    7 ..............................
........................................................................
     iter. time                 ...        0 min,  0.000 sec
 * total energy  :    -6.0662632 Eh     change       -0.2421465E-04 Eh
   gradient norm :     0.0022520 Eh/α   predicted    -0.1968628E-04 ( -18.70%)
   displ. norm   :     0.0093641 α      lambda       -0.7872674E-05
   maximum displ.:     0.0044080 α      in ANC's #3, #4, #1, ...

........................................................................
.............................. CYCLE    8 ..............................
........................................................................
     iter. time                 ...        0 min,  0.000 sec
 * total energy  :    -6.0662683 Eh     change       -0.5129190E-05 Eh
   gradient norm :     0.0009342 Eh/α   predicted    -0.3940358E-05 ( -23.18%)
   displ. norm   :     0.0110519 α      lambda       -0.2444620E-05
   maximum displ.:     0.0060413 α      in ANC's #3, #4, #9, ...

........................................................................
.............................. CYCLE    9 ..............................
........................................................................
     iter. time                 ...        0 min,  0.000 sec
 * total energy  :    -6.0662701 Eh     change       -0.1811356E-05 Eh
   gradient norm :     0.0007879 Eh/α   predicted    -0.1232080E-05 ( -31.98%)
   displ. norm   :     0.0027829 α      lambda       -0.3880809E-06
   maximum displ.:     0.0012059 α      in ANC's #5, #2, #1, ...

........................................................................
.............................. CYCLE   10 ..............................
........................................................................
     iter. time                 ...        0 min,  0.000 sec
 * total energy  :    -6.0662706 Eh     change       -0.4588454E-06 Eh
   gradient norm :     0.0002698 Eh/α   predicted    -0.2387834E-06 ( -47.96%)
   displ. norm   :     0.0028938 α      lambda       -0.1680017E-06
   maximum displ.:     0.0016375 α      in ANC's #1, #5, #3, ...

   *** FAILED TO CONVERGE GEOMETRY OPTIMIZATION IN 10 ITERATIONS ***


 ANCopt (total)                0 d,  0 h,  0 min,  0.007 sec
 optimizer setup                ...        0 min,  0.000 sec (  0.921%)
 model hessian                  ...        0 min,  0.000 sec (  3.342%)
 ANC generation                 ...        0 min,  0.001 sec (  9.119%)
 coordinate transformation      ...        0 min,  0.000 sec (  0.415%)
 single point calculation       ...        0 min,  0.005 sec ( 73.827%)
 optimization log               ...        0 min,  0.000 sec (  5.691%)
 hessian update                 ...        0 min,  0.000 sec (  0.659%)
 rational function              ...        0 min,  0.000 sec (  3.591%)

================
 final structure:
================
ATOM      1  C   GLY A  13       1.542  -8.517  -5.829  1.00  0.00           C  
ATOM      2  O   GLY A  13       0.590  -8.538  -6.567  1.00  0.00           O  
ATOM      3  N   GLY A  14       2.781  -8.110  -6.221  1.00  0.00           N  
ATOM      4  CA  GLY A  14       3.004  -7.602  -7.564  1.00  0.00           C  
ATOM      5  C   GLY A  14       3.153  -6.102  -7.563  1.00  0.00           C  
ATOM      6  O   GLY A  14       2.240  -5.460  -7.084  1.00  0.00           O  
ATOM      7  H   GLY A  14       3.517  -7.891  -5.546  1.00  0.00           H  
ATOM      8  HA2 GLY A  14       3.859  -8.109  -8.015  1.00  0.00           H  
ATOM      9  HA3 GLY A  14       2.121  -7.867  -8.159  1.00  0.00           H  
ATOM     10  N   GLY A  15       4.256  -5.428  -8.069  1.00  0.00           N  
ATOM     11  CA  GLY A  15       5.425  -5.992  -8.748  1.00  0.00           C  
ATOM     12  C   GLY A  15       5.414  -5.678 -10.220  1.00  0.00           C  
ATOM     13  O   GLY A  15       4.637  -6.267 -10.940  1.00  0.00           O  
ATOM     14  H   GLY A  15       4.206  -4.414  -8.126  1.00  0.00           H  
ATOM     15  HA2 GLY A  15       6.333  -5.602  -8.279  1.00  0.00           H  
ATOM     16  HA3 GLY A  15       5.453  -7.076  -8.614  1.00  0.00           H  
ATOM     17  N   GLY A  16       6.284  -4.724 -10.711  1.00  0.00           N  
ATOM     18  CA  GLY A  16       6.182  -4.245 -12.080  1.00  0.00           C  
ATOM     19  C   GLY A  16       5.814  -2.785 -12.110  1.00  0.00           C  
ATOM     20  O   GLY A  16       4.855  -2.437 -11.451  1.00  0.00           O  
ATOM     21  H   GLY A  16       6.792  -4.103 -10.080  1.00  0.00           H  
ATOM     22  HA2 GLY A  16       7.123  -4.438 -12.602  1.00  0.00           H  
ATOM     23  HA3 GLY A  16       5.398  -4.829 -12.574  1.00  0.00           H  
ATOM     24  N   GLY A  17       6.508  -1.842 -12.851  1.00  0.00           N  
ATOM     25  CA  GLY A  17       7.761  -2.028 -13.575  1.00  0.00           C  
ATOM     26  C   GLY A  17       8.168  -0.763 -14.252  1.00  0.00           C  
ATOM     27  O   GLY A  17       7.562   0.257 -14.066  1.00  0.00           O  
ATOM     28  H   GLY A  17       6.216  -0.863 -12.807  1.00  0.00           H  
ATOM     29  HA2 GLY A  17       8.535  -2.338 -12.865  1.00  0.00           H  
ATOM     30  HA3 GLY A  17       7.629  -2.828 -14.311  1.00  0.00           H  
ATOM     31  N   ALA A  18       9.285  -0.799 -15.091  1.00  0.00           N  
ATOM     32  CA  ALA A  18       9.666   0.208 -15.931  1.00  0.00           C  
ATOM     33  H   ALA A  18       9.889  -1.629 -15.133  1.00  0.00           H  
ATOM     34  HA  ALA A  18       8.931   0.851 -16.263  1.00  0.00           H  
END

 Bond Distances (Angstroems)
 ---------------------------
C1-O2=1.2045         C1-N3=1.3614         O2-C1=1.2045         N3-C1=1.3614         N3-C4=1.4538         N3-H7=1.0228         
C4-N3=1.4538         C4-C5=1.5074         C4-H8=1.0914         C4-H9=1.0963         C5-C4=1.5074         C5-O6=1.2146         
C5-N10=1.3884        O6-C5=1.2146         H7-N3=1.0228         H8-C4=1.0914         H9-C4=1.0963         N10-C5=1.3884        
N10-C11=1.4645       N10-H14=1.0168       C11-N10=1.4645       C11-C12=1.5054       C11-H15=1.0936       C11-H16=1.0924       
C12-C11=1.5054       C12-O13=1.2125       C12-N17=1.3806       O13-C12=1.2125       H14-N10=1.0168       H15-C11=1.0936       
H16-C11=1.0924       N17-C12=1.3806       N17-C18=1.4541       N17-H21=1.0204       C18-N17=1.4541       C18-C19=1.5057       
C18-H22=1.0932       C18-H23=1.0957       C19-C18=1.5057       C19-O20=1.2137       C19-N24=1.3860       O20-C19=1.2137       
H21-N17=1.0204       H22-C18=1.0932       H23-C18=1.0957       N24-C19=1.3860       N24-C25=1.4586       N24-H28=1.0228       
C25-N24=1.4586       C25-C26=1.4914       C25-H29=1.0957       C25-H30=1.0949       C26-C25=1.4914       C26-O27=1.2010       
C26-N31=1.3971       O27-C26=1.2010       H28-N24=1.0228       H29-C25=1.0957       H30-C25=1.0949       N31-C26=1.3971       
N31-C32=1.3654       N31-H33=1.0280       C32-N31=1.3654       C32-H34=1.0315       H33-N31=1.0280       H34-C32=1.0315       
 C  H  Rav=1.0872 sigma=0.0198  Rmin=1.0315  Rmax=1.0963     9
 C  C  Rav=1.5025 sigma=0.0064  Rmin=1.4914  Rmax=1.5074     4
 N  H  Rav=1.0221 sigma=0.0037  Rmin=1.0168  Rmax=1.0280     5
 N  C  Rav=1.4110 sigma=0.0395  Rmin=1.3614  Rmax=1.4645    10
 O  C  Rav=1.2093 sigma=0.0055  Rmin=1.2010  Rmax=1.2146     5

 selected bond angles (degree)
 --------------------
N3-C1-O2=123.22                C4-N3-C1=120.66                H7-N3-C1=121.97                H7-N3-C4=115.12                
C5-C4-N3=111.22                H8-C4-N3=109.84                H8-C4-C5=112.63                H9-C4-N3=107.04                
H9-C4-C5=108.70                H9-C4-H8=107.15                O6-C5-C4=116.86                N10-C5-C4=124.16               
N10-C5-O6=118.97               C11-N10-C5=128.03              H14-N10-C5=117.73              H14-N10-C11=113.41             

 selected dihedral angles (degree)
 ---------------------------------
C4-N3-C1-O2=  3.34            H7-N3-C1-O2=165.44            C5-C4-N3-C1=104.64            C5-C4-N3-H7=301.38            
H8-C4-N3-C1=230.02            H8-C4-N3-H7= 66.76            H9-C4-N3-C1=346.03            H9-C4-N3-H7=182.76            
O6-C5-C4-N3=303.46            O6-C5-C4-H8=179.66            O6-C5-C4-H9= 61.07            N10-C5-C4-N3=123.46           
N10-C5-C4-H8=359.65           N10-C5-C4-H9=241.07           C11-N10-C5-C4=  3.54          C11-N10-C5-O6=183.54          
H14-N10-C5-C4=172.40          H14-N10-C5-O6=352.40          
           -------------------------------------------------
          |                Final Singlepoint                |
           -------------------------------------------------
         :::::::::::::::::::::::::::::::::::::::::::::::::::::
         ::                     SUMMARY                     ::
         :::::::::::::::::::::::::::::::::::::::::::::::::::::
         :: total energy              -6.066270748021 Eh    ::
         :: total w/o Gsolv           -6.024004026866 Eh    ::
         :: total w/o Gsasa/hb        -6.058630124143 Eh    ::
         :: gradient norm              0.000241245573 Eh/a0 ::
         ::.................................................::
         :: bond energy               -6.103060432482 Eh    ::
         :: angle energy               0.029506220356 Eh    ::
         :: torsion energy             0.009754261339 Eh    ::
         :: repulsion energy           0.383219612727 Eh    ::
         :: electrostat energy        -0.320066618180 Eh    ::
         :: dispersion energy         -0.022263159845 Eh    ::
         :: HB energy                 -0.001273505699 Eh    ::
         :: XB energy                  0.000000000000 Eh    ::
         :: bonded atm energy         -0.009350301211 Eh    ::
         :: external energy            0.000000000000 Eh    ::
         :: -> Gsolv                  -0.042266721156 Eh    ::
         ::    -> Gborn               -0.034626097277 Eh    ::
         ::    -> Gsasa                0.009436065371 Eh    ::
         ::    -> Ghb                 -0.017441628505 Eh    ::
         ::    -> Gshift               0.000364939255 Eh    ::
         :: add. restraining           0.009529896130 Eh    ::
         :: total charge               0.000000000000 e     ::
         ::.................................................::
         :: atomisation energy         0.000000000000 Eh    ::
         :::::::::::::::::::::::::::::::::::::::::::::::::::::

           -------------------------------------------------
          |                Property Printout                |
           -------------------------------------------------
           -------------------------------------------------
          |                Geometry Summary                 |
           -------------------------------------------------

      molecular mass/u    :      284.2490701
   center of mass at/Å    :        5.2305131      -4.3485075     -10.5310163
  moments of inertia/u·Å² :        0.3386295E+03   0.6474041E+04   0.6607572E+04
rotational constants/cm⁻¹ :        0.4978194E-01   0.2603881E-02   0.2551260E-02

 * 28 selected distances

     #   Z          #   Z                                           value/Å
     1   6  C       3   7  N                                      1.3613863
     3   7  N       4   6  C                                      1.4538230
     5   6  C       6   8  O                                      1.2146126
     3   7  N       7   1  H                                      1.0227679
     4   6  C       8   1  H                                      1.0914131
     4   6  C       9   1  H                                      1.0963089
     5   6  C      10   7  N                                      1.3884215
    10   7  N      11   6  C                                      1.4645151 (max)
    12   6  C      13   8  O                                      1.2125008
    10   7  N      14   1  H                                      1.0167807 (min)
    11   6  C      15   1  H                                      1.0936350
    11   6  C      16   1  H                                      1.0924431
    12   6  C      17   7  N                                      1.3805513
    17   7  N      18   6  C                                      1.4541357
    19   6  C      20   8  O                                      1.2136871
    17   7  N      21   1  H                                      1.0203676
    18   6  C      22   1  H                                      1.0932065
    18   6  C      23   1  H                                      1.0956785
    19   6  C      24   7  N                                      1.3859964
    24   7  N      25   6  C                                      1.4585511
    26   6  C      27   8  O                                      1.2009960
    24   7  N      28   1  H                                      1.0227930
    25   6  C      29   1  H                                      1.0957254
    25   6  C      30   1  H                                      1.0949068
    26   6  C      31   7  N                                      1.3971432
    31   7  N      32   6  C                                      1.3654119
    31   7  N      33   1  H                                      1.0279868
    32   6  C      34   1  H                                      1.0314826

 * 4 distinct bonds (by element types)

   Z      Z             #   av. dist./Å        max./Å        min./Å
   1 H    6 C           9     1.0872000     1.0963089     1.0314826
   1 H    7 N           5     1.0221392     1.0279868     1.0167807
   6 C    7 N          10     1.4109936     1.4645151     1.3613863
   6 C    8 O           4     1.2104491     1.2146126     1.2009960


optimized geometry written to: xtbopt.pdb


           -------------------------------------------------
          | TOTAL ENERGY               -6.066270748021 Eh   |
          | GRADIENT NORM               0.000241245573 Eh/α |
           -------------------------------------------------
########################################################################
[WARNING] Runtime exception occurred
-1- gfnff_setup: Could not read topology file.
########################################################################

------------------------------------------------------------------------
 unit  open   action     filename
   10 false : read       xtb_settings.inp
   10 false : read       substructure_53.pdb
   10 false : read       xtb_settings.inp
   10 false : written    gfnff_topo
   10 false : written    gfnff_adjacency
   10 false : written    gfnff_charges
   10 false : deleted    .xtboptok
   10 false : replaced   xtbopt.log
   11 false : created    .xtboptok
   11 false : replaced   gfnff_charges
   10 false : replaced   xtbopt.pdb

------------------------------------------------------------------------
 * finished run on 2025/05/27 at 09:37:52.291     
------------------------------------------------------------------------
 total:
 * wall-time:     0 d,  0 h,  0 min,  0.012 sec
 *  cpu-time:     0 d,  0 h,  0 min,  0.012 sec
 * ratio c/w:     0.999 speedup
 SCF:
 * wall-time:     0 d,  0 h,  0 min,  0.001 sec
 *  cpu-time:     0 d,  0 h,  0 min,  0.001 sec
 * ratio c/w:     0.999 speedup
 ANC optimizer:
 * wall-time:     0 d,  0 h,  0 min,  0.008 sec
 *  cpu-time:     0 d,  0 h,  0 min,  0.008 sec
 * ratio c/w:     1.000 speedup

