      -----------------------------------------------------------      
     |                   =====================                   |     
     |                           x T B                           |     
     |                   =====================                   |     
     |                         S. Grimme                         |     
     |          Mulliken Center for Theoretical Chemistry        |     
     |                    University of Bonn                     |     
      -----------------------------------------------------------      

   * xtb version 6.6.1 (8d0f1dd) compiled by 'conda@1efc2f54142f' on 2023-08-01

   xtb is free software: you can redistribute it and/or modify it under
   the terms of the GNU Lesser General Public License as published by
   the Free Software Foundation, either version 3 of the License, or
   (at your option) any later version.
   
   xtb is distributed in the hope that it will be useful,
   but WITHOUT ANY WARRANTY; without even the implied warranty of
   MERCHANTABILITY or FITNESS FOR A PARTICULAR PURPOSE.  See the
   GNU Lesser General Public License for more details.
   
   Cite this work as:
   * C. Bannwarth, E. Caldeweyher, S. Ehlert, A. Hansen, P. Pracht,
     J. Seibert, S. Spicher, S. Grimme, WIREs Comput. Mol. Sci., 2020, 11,
     e01493. DOI: 10.1002/wcms.1493
   
   for GFN2-xTB:
   * C. Bannwarth, S. Ehlert and S. Grimme., J. Chem. Theory Comput., 2019,
     15, 1652-1671. DOI: 10.1021/acs.jctc.8b01176
   for GFN1-xTB:
   * S. Grimme, C. Bannwarth, P. Shushkov, J. Chem. Theory Comput., 2017,
     13, 1989-2009. DOI: 10.1021/acs.jctc.7b00118
   for GFN0-xTB:
   * P. Pracht, E. Caldeweyher, S. Ehlert, S. Grimme, ChemRxiv, 2019, preprint.
     DOI: 10.26434/chemrxiv.8326202.v1
   for GFN-FF:
   * S. Spicher and S. Grimme, Angew. Chem. Int. Ed., 2020, 59, 15665-15673.
     DOI: 10.1002/anie.202004239
   
   for ALPB and GBSA implicit solvation:
   * S. Ehlert, M. Stahn, S. Spicher, S. Grimme, J. Chem. Theory Comput.,
     2021, 17, 4250-4261. DOI: 10.1021/acs.jctc.1c00471
   
   for DFT-D4:
   * E. Caldeweyher, C. Bannwarth and S. Grimme, J. Chem. Phys., 2017,
     147, 034112. DOI: 10.1063/1.4993215
   * E. Caldeweyher, S. Ehlert, A. Hansen, H. Neugebauer, S. Spicher,
     C. Bannwarth and S. Grimme, J. Chem. Phys., 2019, 150, 154122.
     DOI: 10.1063/1.5090222
   * E. Caldeweyher, J.-M. Mewes, S. Ehlert and S. Grimme, Phys. Chem. Chem. Phys.
     2020, 22, 8499-8512. DOI: 10.1039/D0CP00502A
   
   for sTDA-xTB:
   * S. Grimme and C. Bannwarth, J. Chem. Phys., 2016, 145, 054103.
     DOI: 10.1063/1.4959605
   
   in the mass-spec context:
   * V. Asgeirsson, C. Bauer and S. Grimme, Chem. Sci., 2017, 8, 4879.
     DOI: 10.1039/c7sc00601b
   * J. Koopman and S. Grimme, ACS Omega 2019, 4, 12, 15120-15133.
     DOI: 10.1021/acsomega.9b02011
   
   for metadynamics refer to:
   * S. Grimme, J. Chem. Theory Comput., 2019, 155, 2847-2862
     DOI: 10.1021/acs.jctc.9b00143
   
   for SPH calculations refer to:
   * S. Spicher and S. Grimme, J. Chem. Theory Comput., 2021, 17, 1701-1714
     DOI: 10.1021/acs.jctc.0c01306
   
   with help from (in alphabetical order)
   P. Atkinson, C. Bannwarth, F. Bohle, G. Brandenburg, E. Caldeweyher
   M. Checinski, S. Dohm, S. Ehlert, S. Ehrlich, I. Gerasimov, C. Hölzer
   A. Katbashev, J. Koopman, C. Lavigne, S. Lehtola, F. März, M. Müller,
   F. Musil, H. Neugebauer, J. Pisarek, C. Plett, P. Pracht, F. Pultar,
   J. Seibert, P. Shushkov, S. Spicher, M. Stahn, M. Steiner, T. Strunk,
   J. Stückrath, T. Rose, and J. Unsleber
   
 * started run on 2025/05/27 at 09:37:31.558     

           -------------------------------------------------
          |                Calculation Setup                |
           -------------------------------------------------

          program call               : xtb substructure_3.pdb --gfnff --input xtb_settings.inp --opt vtight --alpb water --verbose
          coordinate file            : substructure_3.pdb
          xtbhome directory          : /home/dargen3
          path for xtb               : /home/dargen3
          xcontrol input file        : xtb_settings.inp
          omp threads                :                     1

$$$$$$$$$$$$$$$$$$$$$$$$$$$$$$$$$$$$$$$$$$$$$$$$$$$$$$$$$$$$$$$$$$$$$$$$
 CONSTRAINTS & SCANS: DEBUG SECTION
$$$$$$$$$$$$$$$$$$$$$$$$$$$$$$$$$$$$$$$$$$$$$$$$$$$$$$$$$$$$$$$$$$$$$$$$
   ID    Z sym.   atoms
    1    6  C     1, 4, 5, 11, 12, 18, 19, 25, 26, 32
    2    8  O     2, 6, 13, 20, 27
    3    7  N     3, 10, 17, 24, 31
    4    1  H     7-9, 14-16, 21-23, 28-30, 33, 34
> constrain
-> atoms: 1, 2, 3, 4, 5, 6, 7, 8, 9, 10, 11, 12, 13, 14, 15, 16, 18, 24, 25, 26, 27, 28, 29, 30, 31, 32, 33, 34
--> 1: 1
--> 2: 2
--> 3: 3
--> 4: 4
--> 5: 5
--> 6: 6
--> 7: 7
--> 8: 8
--> 9: 9
--> 10: 10
--> 11: 11
--> 12: 12
--> 13: 13
--> 14: 14
--> 15: 15
--> 16: 16
--> 17: 18
--> 18: 24
--> 19: 25
--> 20: 26
--> 21: 27
--> 22: 28
--> 23: 29
--> 24: 30
--> 25: 31
--> 26: 32
--> 27: 33
--> 28: 34
-> force constant=1.0
$$$$$$$$$$$$$$$$$$$$$$$$$$$$$$$$$$$$$$$$$$$$$$$$$$$$$$$$$$$$$$$$$$$$$$$$
           -------------------------------------------------
          |                   Constraints                   |
           -------------------------------------------------

 * 28 constrained atom positions
   positions refering to input geometry

     #   Z                                   position/Å      displ./Å
     1   6 C      1.4440001    -8.3450008    -5.7740005     0.0000000
     2   8 O      0.4550000    -8.0720007    -6.4200006     0.0000000
     3   7 N      2.7270003    -8.2260008    -6.2850006     0.0000000
     4   6 C      3.0050003    -7.6070007    -7.5660007     0.0000000
     5   6 C      3.2240003    -6.1210006    -7.4180007     0.0000000
     6   8 O      2.3820002    -5.4800005    -6.8230006     0.0000000
     7   1 H      3.5490003    -8.3920008    -5.7030005     0.0000000
     8   1 H      3.8220004    -8.1020008    -8.0700007     0.0000000
     9   1 H      2.1010002    -7.7490007    -8.1890008     0.0000000
    10   7 N      4.3680004    -5.4470005    -7.9340007     0.0000000
    11   6 C      5.4280005    -5.9890006    -8.7440008     0.0000000
    12   6 C      5.2800005    -5.6370005   -10.2110009     0.0000000
    13   8 O      4.4220004    -6.1620006   -10.8870010     0.0000000
    14   1 H      4.3740004    -4.4300004    -7.8990007     0.0000000
    15   1 H      6.3930006    -5.6790005    -8.3770008     0.0000000
    16   1 H      5.4260005    -7.1000007    -8.6720008     0.0000000
    18   6 C      6.1780006    -4.2520004   -12.0880011     0.0000000
    24   7 N      6.5060006    -1.8280002   -12.8740012     0.0000000
    25   6 C      7.7600007    -2.0220002   -13.5740013     0.0000000
    26   6 C      8.0040007    -0.9820001   -14.6170014     0.0000000
    27   8 O      7.1460007    -0.6860001   -15.4180014     0.0000000
    28   1 H      6.1020006    -0.9040001   -13.0050012     0.0000000
    29   1 H      8.5730008    -2.0810002   -12.8620012     0.0000000
    30   1 H      7.7070007    -3.0050003   -14.1010013     0.0000000
    31   7 N      9.3050009    -0.5700001   -14.7480014     0.0000000
    32   6 C      9.7400009     0.3630000   -15.7630015     0.0000000
    33   1 H     10.0740009    -1.0100001   -14.2290013     0.0000000
    34   1 H      9.3470009    -0.0000000   -16.7230016     0.0000000

     applying 378 atom pairwise harmonic potentials
       applied force constant per pair:     0.0370370
     effective force constant per atom:     1.0000000
         constraining energy/grad norm:     0.0000000     0.0000000

     total constraint energy/grad norm:     0.0000000     0.0000000

          charge from pdb residues: 0

          entering GFN-FF setup routine... 34

          ==================== Thresholds ====================
          CN  :   150.00000
          rep :   500.00000
          disp:  2500.00000
          HB1 :   250.00000
          HB2 :   450.00000

          Pauling EN used:
          Z : 1  EN :  2.20
          Z : 6  EN :  2.55
          Z : 7  EN :  3.04
          Z : 8  EN :  3.44
          electric field strengths (au): 0.000

           ------------------------------------------------- 
          |           Force Field Initialization            |
           ------------------------------------------------- 

          distances ...
          ----------------------------------------
          generating topology and atomic info file ...
          pair mat ...
          computing topology distances matrix with Floyd-Warshall algo ...
          making topology EEQ charges ...
          #fragments for EEQ constrain from pdb file: 6
          ----------------------------------------
          generating topology and atomic info file ...
          pair mat ...
          computing topology distances matrix with Floyd-Warshall algo ...
          making topology EEQ charges ...
          #fragments for EEQ constrain from pdb file: 6
          rings ...
          # BATM   262
          # H in HB   14
          doing iterative Hueckel for 5 subsystem(s) ...
          iterative Hueckel run to get P ...
Hueckel system :  1 charge :   0 ndim/Nel :    3    3   eps(HOMO/LUMO)   -0.953556   -0.953556
Hueckel system :  2 charge :   0 ndim/Nel :    3    4   eps(HOMO/LUMO)   -0.911792   -0.911792
Hueckel system :  3 charge :   0 ndim/Nel :    3    4   eps(HOMO/LUMO)   -0.912294   -0.912294
Hueckel system :  4 charge :   0 ndim/Nel :    3    4   eps(HOMO/LUMO)   -0.913320   -0.913320
Hueckel system :  5 charge :   0 ndim/Nel :    4    4   eps(HOMO/LUMO)   -2.208693    2.531636

  atom   neighbors  erfCN metchar sp-hybrid imet pi  qest     coordinates
    1   C      2    1.93   0.00        -2    0    1   0.120    2.728765  -15.769765  -10.911279
    2   O      1    0.98   0.00         2    0    1  -0.120    0.859825  -15.253869  -12.132042
    3   N      3    2.79   0.00        -3    0    1  -0.166    5.153283  -15.544887  -11.876929
    4   C      4    3.49   0.00         3    0    0   0.005    5.678627  -14.375147  -14.297668
    5   C      3    2.79   0.00         2    0    1   0.174    6.092477  -11.567014  -14.017988
    6   O      1    0.98   0.00         2    0    1  -0.352    4.501328  -10.355699  -12.893601
    7   H      1    0.98   0.00         0    0    0   0.153    6.706638  -15.858582  -10.777108
    8   H      1    0.97   0.00         0    0    0   0.093    7.222533  -15.310561  -15.250090
    9   H      1    0.97   0.01         0    0    0   0.093    3.970315  -14.643488  -15.474967
   10   N      3    2.79   0.00        -3    0    1  -0.167    8.254324  -10.293338  -14.993087
   11   C      4    3.49   0.00         3    0    0   0.005   10.257433  -11.317570  -16.523765
   12   C      3    2.79   0.00         2    0    1   0.175    9.977754  -10.652386  -19.295993
   13   O      1    0.98   0.00         2    0    1  -0.353    8.356369  -11.644492  -20.573448
   14   H      1    0.98   0.00         0    0    0   0.155    8.265662   -8.371487  -14.926947
   15   H      1    0.97   0.00         0    0    0   0.093   12.081019  -10.731755  -15.830236
   16   H      1    0.97   0.01         0    0    0   0.093   10.253654  -13.417055  -16.387705
   17   N      3    2.79   0.00        -3    0    1  -0.166   11.765435   -8.966750  -20.255974
   18   C      4    3.49   0.00         3    0    0   0.004   11.674728   -8.035115  -22.843009
   19   C      3    2.79   0.00         2    0    1   0.175   10.911279   -5.302572  -22.926157
   20   O      1    0.98   0.00         2    0    1  -0.353    8.979979   -4.701639  -21.843344
   21   H      1    0.98   0.00         0    0    0   0.152   13.020213   -8.050233  -19.112690
   22   H      1    0.97   0.00         0    0    0   0.094   13.496424   -8.350700  -23.753857
   23   H      1    0.97   0.00         0    0    0   0.094   10.257433   -9.161392  -23.848344
   24   N      3    2.79   0.00        -3    0    1  -0.164   12.294558   -3.454419  -24.328334
   25   C      4    3.49   0.00         3    0    0   0.006   14.664275   -3.821026  -25.651142
   26   C      3    2.80   0.00         2    0    1   0.171   15.125368   -1.855711  -27.622127
   27   O      1    0.98   0.00         2    0    1  -0.351   13.503983   -1.296352  -29.135797
   28   H      1    0.98   0.00         0    0    0   0.150   11.531109   -1.708312  -24.575888
   29   H      1    0.97   0.00         0    0    0   0.094   16.200622   -3.932520  -24.305657
   30   H      1    0.97   0.01         0    0    0   0.094   14.564119   -5.678627  -26.647028
   31   N      3    2.79   0.00         3    0    1  -0.058   17.583902   -1.077144  -27.869681
   32   C      2    1.92   0.00        -2    0    1  -0.249   18.405932    0.685971  -29.787753
   33   H      1    0.98   0.00         0    0    0   0.122   19.037101   -1.908623  -26.888913
   34   H      1    0.97   0.01         0    0    0   0.185   17.663270   -0.000000  -31.601890

molecular fragment  # atoms  topo charge
       1             2             0.000
       2             7             0.000
       3             7            -0.000
       4             7            -0.000
       5             7            -0.000
       6             4            -0.000


          #atoms :   34
          #bonds :   33

 bond atoms        type  in ring    R      R0    piBO    fqq  kbond(tot)  alp
 O  C     2    1      2    0     1.212   0.995   0.799   1.047  -0.252   0.584
 N  C     3    1      2    0     1.386   1.214   0.504   1.047  -0.235   0.524
 C  N     4    3      1    0     1.450   1.326 -99.000   1.033  -0.151   0.496
 C  C     5    4      1    0     1.509   1.332 -99.000   1.013  -0.162   0.475
 O  C     6    5      2    0     1.214   1.031   0.856   1.047  -0.262   0.584
 H  N     7    3      1    0     1.021   0.890 -99.000   1.047  -0.176   0.551
 H  C     8    4      1    0     1.080   0.976 -99.000   1.018  -0.164   0.482
 H  C     9    4      1    0     1.107   0.976 -99.000   1.018  -0.164   0.482
 N  C    10    5      2    0     1.424   1.262   0.503   1.047  -0.234   0.524
 C  N    11   10      1    0     1.440   1.325 -99.000   1.034  -0.151   0.496
 C  C    12   11      1    0     1.516   1.332 -99.000   1.013  -0.162   0.475
 O  C    13   12      2    0     1.212   1.031   0.856   1.047  -0.262   0.584
 H  N    14   10      1    0     1.018   0.890 -99.000   1.047  -0.176   0.551
 H  C    15   11      1    0     1.078   0.976 -99.000   1.018  -0.164   0.482
 H  C    16   11      1    0     1.113   0.976 -99.000   1.018  -0.164   0.482
 N  C    17   12      2    0     1.396   1.263   0.503   1.047  -0.234   0.524
 C  N    18   17      1    0     1.456   1.326 -99.000   1.032  -0.151   0.496
 C  C    19   18      1    0     1.502   1.332 -99.000   1.014  -0.162   0.475
 O  C    20   19      2    0     1.214   1.031   0.857   1.047  -0.262   0.584
 H  N    21   17      1    0     1.021   0.890 -99.000   1.047  -0.176   0.551
 H  C    22   18      1    0     1.091   0.976 -99.000   1.018  -0.164   0.482
 H  C    23   18      1    0     1.096   0.976 -99.000   1.018  -0.164   0.482
 N  C    24   19      2    0     1.429   1.262   0.503   1.047  -0.234   0.524
 C  N    25   24      1    0     1.449   1.325 -99.000   1.034  -0.151   0.496
 C  C    26   25      1    0     1.493   1.332 -99.000   1.013  -0.162   0.475
 O  C    27   26      2    0     1.211   1.014   0.951   1.047  -0.278   0.584
 H  N    28   24      1    0     1.017   0.890 -99.000   1.047  -0.176   0.551
 H  C    29   25      1    0     1.082   0.976 -99.000   1.017  -0.164   0.482
 H  C    30   25      1    0     1.117   0.976 -99.000   1.017  -0.164   0.482
 N  C    31   26      2    0     1.371   1.302   0.285   1.047  -0.191   0.524
 C  N    32   31      2    0     1.446   1.153   0.841   1.000  -0.287   0.524
 H  N    33   31      1    0     1.027   0.890 -99.000   1.047  -0.176   0.551
 H  C    34   32      1    0     1.099   0.903 -99.000   1.047  -0.182   0.490
          #angl  :   53

 angle atoms        phi0    phi      FC  pi rings
    1    3    2   145.000 122.634   0.082 F   0
    3    4    1   115.000 122.679   0.411 F   0
    3    7    1   115.000 121.413   0.335 F   0
    3    7    4   104.000 114.762   0.182 F   0
    4    5    3   109.500 111.198   0.307 F   0
    4    8    3   109.500 111.206   0.253 F   0
    4    8    5   109.500 112.782   0.251 F   0
    4    9    3   109.500 106.614   0.253 F   0
    4    9    5   109.500 107.455   0.251 F   0
    4    9    8   108.600 107.236   0.209 F   0
    5    6    4   120.000 117.856   0.178 F   0
    5   10    4   120.000 123.150   0.243 F   0
    5   10    6   120.000 118.992   0.177 F   0
   10   11    5   115.000 128.086   0.409 F   0
   10   14    5   115.000 117.719   0.333 F   0
   10   14   11   104.000 113.028   0.182 F   0
   11   12   10   109.500 112.650   0.307 F   0
   11   15   10   109.500 111.053   0.253 F   0
   11   15   12   109.500 110.493   0.251 F   0
   11   16   10   109.500 109.750   0.253 F   0
   11   16   12   109.500 107.105   0.251 F   0
   11   16   15   108.600 105.460   0.209 F   0
   12   13   11   120.000 120.553   0.178 F   0
   12   17   11   120.000 115.747   0.243 F   0
   12   17   13   120.000 123.614   0.177 F   0
   17   18   12   115.000 122.428   0.409 F   0
   17   21   12   115.000 121.918   0.333 F   0
   17   21   18   104.000 114.699   0.182 F   0
   18   19   17   109.500 111.249   0.307 F   0
   18   22   17   109.500 109.547   0.253 F   0
   18   22   19   109.500 111.851   0.251 F   0
   18   23   17   109.500 107.153   0.253 F   0
   18   23   19   109.500 108.984   0.251 F   0
   18   23   22   108.600 107.886   0.209 F   0
   19   20   18   120.000 117.695   0.178 F   0
   19   24   18   120.000 122.425   0.243 F   0
   19   24   20   120.000 119.796   0.177 F   0
   24   25   19   115.000 127.036   0.409 F   0
   24   28   19   115.000 119.022   0.334 F   0
   24   28   25   104.000 113.777   0.182 F   0
   25   26   24   109.500 112.682   0.307 F   0
   25   29   24   109.500 109.848   0.253 F   0
   25   29   26   109.500 112.011   0.251 F   0
   25   30   24   109.500 107.743   0.253 F   0
   25   30   26   109.500 106.935   0.251 F   0
   25   30   29   108.600 107.346   0.209 F   0
   26   27   25   120.000 121.115   0.178 F   0
   26   31   25   120.000 115.543   0.245 F   0
   26   31   27   120.000 122.405   0.179 F   0
   31   32   26   113.000 123.133   0.075 F   0
   31   33   26   113.000 122.252   0.230 F   0
   31   33   32   113.000 113.959   0.120 F   0
   32   34   31   145.000 107.009   0.090 F   0
 torsion atoms        nrot   rings    phi0    phi      FC
    3    1    4    2   2      0     180.000   8.117   0.765
    3    1    7    2   2      0     180.000 175.238   1.135
    4    3    5    1   3      0     180.000  89.083   0.024
    4    3    5    7   3      0     180.000  78.824   0.032
    4    3    8    1   3      0     180.000 144.335   0.034
    4    3    8    7   3      0     180.000  47.757   0.045
    4    3    9    1   3      0     180.000  27.755   0.034
    4    3    9    7   3      0     180.000 164.338   0.045
    5    4    6    3   3      0     180.000  51.814   0.066
    5    4    6    8   3      0     180.000 177.524   0.115
    5    4    6    9   3      0     180.000  64.509   0.115
    5    4   10    3   3      0     180.000 127.798   0.041
    5    4   10    8   3      0     180.000   2.088   0.072
    5    4   10    9   3      0     180.000 115.879   0.072
   10    5   11    4   2      0     180.000   5.228   0.614
   10    5   11    6   2      0     180.000 175.164   0.832
   10    5   14    4   2      0     180.000 171.932   0.911
   10    5   14    6   2      0     180.000   8.460   1.234
   11   10   12    5   3      0     180.000 101.471   0.022
   11   10   12   14   3      0     180.000  65.749   0.032
   11   10   15    5   3      0     180.000 133.979   0.032
   11   10   15   14   3      0     180.000  58.801   0.045
   11   10   16    5   3      0     180.000  17.768   0.032
   11   10   16   14   3      0     180.000 175.012   0.045
   12   11   13   10   3      0     180.000  72.416   0.066
   12   11   13   15   3      0     180.000 162.728   0.115
   12   11   13   16   3      0     180.000  48.349   0.115
   12   11   17   10   3      0     180.000 110.843   0.041
   12   11   17   15   3      0     180.000  14.013   0.072
   12   11   17   16   3      0     180.000 128.392   0.072
   17   12   18   11   2      0     180.000 176.601   0.612
   17   12   18   13   2      0     180.000   6.769   0.830
   17   12   21   11   2      0     180.000   8.381   0.909
   17   12   21   13   2      0     180.000 174.989   1.231
   18   17   19   12   3      0     180.000 108.468   0.022
   18   17   19   21   3      0     180.000  60.536   0.032
   18   17   22   12   3      0     180.000 127.349   0.032
   18   17   22   21   3      0     180.000  63.647   0.045
   18   17   23   12   3      0     180.000  10.563   0.032
   18   17   23   21   3      0     180.000 179.568   0.045
   19   18   20   17   3      0     180.000  53.074   0.066
   19   18   20   22   3      0     180.000 175.942   0.115
   19   18   20   23   3      0     180.000  64.857   0.115
   19   18   24   17   3      0     180.000 130.284   0.041
   19   18   24   22   3      0     180.000   7.416   0.072
   19   18   24   23   3      0     180.000 111.786   0.072
   24   19   25   18   2      0     180.000   5.738   0.610
   24   19   25   20   2      0     180.000 177.688   0.827
   24   19   28   18   2      0     180.000 169.280   0.905
   24   19   28   20   2      0     180.000   7.295   1.227
   25   24   26   19   3      0     180.000 159.697   0.022
   25   24   26   28   3      0     180.000  15.543   0.032
   25   24   29   19   3      0     180.000  74.661   0.032
   25   24   29   28   3      0     180.000 110.100   0.045
   25   24   30   19   3      0     180.000  41.974   0.032
   25   24   30   28   3      0     180.000 133.265   0.045
   26   25   27   24   3      0     180.000  48.278   0.066
   26   25   27   29   3      0     180.000 172.742   0.115
   26   25   27   30   3      0     180.000  69.920   0.115
   26   25   31   24   3      0     180.000 142.541   0.041
   26   25   31   29   3      0     180.000  18.078   0.072
   26   25   31   30   3      0     180.000  99.261   0.072
   31   26   32   25   2      0     180.000 175.825   0.129
   31   26   32   27   2      0     180.000   6.798   0.175
   31   26   33   25   2      0     180.000   5.676   0.174
   31   26   33   27   2      0     180.000 163.351   0.235
   32   31   34   26   2      0     180.000  49.971   1.440
   32   31   34   33   2      0     180.000 120.918   2.051
 out-of-plane atoms          phi0    phi      FC
    3    7    1    4          0.000  10.814   0.133
    5    6   10    4          0.000   0.328  23.906
   10   14    5   11          0.000  10.428   0.128
   12   13   17   11          0.000  -3.035  23.934
   17   21   12   18          0.000   9.923   0.134
   19   20   24   18          0.000  -2.891  23.956
   24   28   19   25          0.000   3.976   0.143
   26   27   31   25          0.000  -9.889  28.295
   31   33   26   32          0.000  -8.237   0.326
          #tors  :   77
          #nmol  :   6
          #optfrag :   6

 GFN-FF setup done.

           ------------------------------------------------- 
          |                   G F N - F F                   |
          |          A general generic force-field          |
          |                  Version 1.0.3                  | 
           ------------------------------------------------- 
      * Solvation model:               ALPB
        Solvent                        water
        Parameter file                 internal GFN-FF/ALPB
        Dielectric constant                8.0200E+01
        Reference state                gsolv [1 M gas/solution]
        Free energy shift                  3.6494E-04 Eh       2.2900E-01 kcal/mol
        Temperature                        2.9815E+02 K
        Density                            1.0000E+00 kg/L
        Solvent mass                       1.8000E+01 g/mol
        Interaction kernel             P16
        Born radius scaling (c1)           1.5056E+00
        Born radii integrator          GBOBC
        Born offset                        0.0000E+00 a0       0.0000E+00 AA
        H-bond correction              true
        Ion screening                  false
        Surface tension                    1.0000E-05 Eh       1.5569E+01 dyn/cm
        Grid points                               230 per atom
          Number of HB bonds (bound hydrogen)     314
          Number of HB bonds (unbound hydrogen)   39
          Number of XB bonds                      0

 E+G (total)                   0 d,  0 h,  0 min,  0.001 sec
 distance/D3 list               ...        0 min,  0.000 sec (  0.187%)
 non bonded repulsion           ...        0 min,  0.000 sec (  2.145%)
 dCN                            ...        0 min,  0.000 sec (  3.122%)
 EEQ energy and q               ...        0 min,  0.000 sec (  4.553%)
 D3                             ...        0 min,  0.000 sec (  9.026%)
 EEQ gradient                   ...        0 min,  0.000 sec (  4.466%)
 bonds                          ...        0 min,  0.000 sec (  0.951%)
 bend and torsion               ...        0 min,  0.000 sec (  4.195%)
 bonded ATM                     ...        0 min,  0.000 sec (  1.691%)
 HB/XB (incl list setup)        ...        0 min,  0.000 sec (  8.548%)
 GBSA                           ...        0 min,  0.001 sec ( 63.324%)

         :::::::::::::::::::::::::::::::::::::::::::::::::::::
         ::                     SUMMARY                     ::
         :::::::::::::::::::::::::::::::::::::::::::::::::::::
         :: total energy              -6.036818136227 Eh    ::
         :: total w/o Gsolv           -5.991671188526 Eh    ::
         :: total w/o Gsasa/hb        -6.029501489367 Eh    ::
         :: gradient norm              0.204875608472 Eh/a0 ::
         ::.................................................::
         :: bond energy               -6.060464003529 Eh    ::
         :: angle energy               0.034883225025 Eh    ::
         :: torsion energy             0.014921708036 Eh    ::
         :: repulsion energy           0.362560849110 Eh    ::
         :: electrostat energy        -0.312832654084 Eh    ::
         :: dispersion energy         -0.022213234183 Eh    ::
         :: HB energy                 -0.000416800776 Eh    ::
         :: XB energy                  0.000000000000 Eh    ::
         :: bonded atm energy         -0.008110278125 Eh    ::
         :: external energy            0.000000000000 Eh    ::
         :: -> Gsolv                  -0.045146947701 Eh    ::
         ::    -> Gborn               -0.037830300841 Eh    ::
         ::    -> Gsasa                0.009711599153 Eh    ::
         ::    -> Ghb                 -0.017393185268 Eh    ::
         ::    -> Gshift               0.000364939255 Eh    ::
         :: add. restraining           0.000000000000 Eh    ::
         :: total charge               0.000000000000 e     ::
         ::.................................................::
         :: atomisation energy         0.000000000000 Eh    ::
         :::::::::::::::::::::::::::::::::::::::::::::::::::::

      ----------------------------------------------------------- 
     |                   =====================                   |
     |                        A N C O P T                        |
     |                   =====================                   |
     |               Approximate Normal Coordinate               |
     |                Rational Function Optimizer                |
      ----------------------------------------------------------- 

          ...................................................
          :                      SETUP                      :
          :.................................................:
          :   optimization level         verytight          :
          :   max. optcycles                    10          :
          :   ANC micro-cycles                  10          :
          :   degrees of freedom                96          :
          :.................................................:
          :   RF solver                   davidson          :
          :   write xtbopt.log                true          :
          :   linear?                        false          :
          :   energy convergence         0.1000000E-06 Eh   :
          :   grad. convergence          0.2000000E-03 Eh/α :
          :   maxmium RF displ.          1.0000000          :
          :   Hlow (freq-cutoff)         0.1000000E-01      :
          :   Hmax (freq-cutoff)         5.0000000          :
          :   S6 in model hess.         20.0000000          :
          ...................................................

generating ANC from model Hessian ...
Using GFN-FF Lindh-Hessian
 Shifting diagonal of input Hessian by    0.0000000000000000     
 Lowest  eigenvalues of input Hessian
    0.000000    0.000000    0.000000    0.000000    0.000000    0.000000
    0.016218    0.023398    0.025559    0.034175    0.048408    0.062677
    0.069501    0.081188    0.083682    0.089120    0.095462    0.102648
 Highest eigenvalues
    3.410805    3.659921    3.716433    3.836477    3.986599    4.410746


........................................................................
.............................. CYCLE    1 ..............................
........................................................................
     iter. time                 ...        0 min,  0.001 sec
 * total energy  :    -6.0368181 Eh     change        0.0000000E+00 Eh
   gradient norm :     0.2048756 Eh/α   predicted     0.0000000E+00 (    NaN%)
   displ. norm   :     0.1805918 α      lambda       -0.1957207E-01
   maximum displ.:     0.0685127 α      in ANC's #7, #15, #22, ...

........................................................................
.............................. CYCLE    2 ..............................
........................................................................
     iter. time                 ...        0 min,  0.001 sec
 * total energy  :    -6.0508141 Eh     change       -0.1399595E-01 Eh
   gradient norm :     0.0841346 Eh/α   predicted    -0.1011033E-01 ( -27.76%)
   displ. norm   :     0.1652292 α      lambda       -0.8179805E-02
   maximum displ.:     0.0681375 α      in ANC's #15, #22, #50, ...

........................................................................
.............................. CYCLE    3 ..............................
........................................................................
     iter. time                 ...        0 min,  0.000 sec
 * total energy  :    -6.0556381 Eh     change       -0.4823982E-02 Eh
   gradient norm :     0.0206169 Eh/α   predicted    -0.4202055E-02 ( -12.89%)
   displ. norm   :     0.0917954 α      lambda       -0.9630371E-03
   maximum displ.:     0.0434763 α      in ANC's #15, #3, #2, ...

........................................................................
.............................. CYCLE    4 ..............................
........................................................................
     iter. time                 ...        0 min,  0.000 sec
 * total energy  :    -6.0562542 Eh     change       -0.6161242E-03 Eh
   gradient norm :     0.0142397 Eh/α   predicted    -0.4856787E-03 ( -21.17%)
   displ. norm   :     0.0530988 α      lambda       -0.2898766E-03
   maximum displ.:     0.0224550 α      in ANC's #3, #7, #15, ...

........................................................................
.............................. CYCLE    5 ..............................
........................................................................
     iter. time                 ...        0 min,  0.000 sec
 * total energy  :    -6.0564218 Eh     change       -0.1676111E-03 Eh
   gradient norm :     0.0063622 Eh/α   predicted    -0.1453960E-03 ( -13.25%)
   displ. norm   :     0.0347514 α      lambda       -0.7695563E-04
   maximum displ.:     0.0199210 α      in ANC's #2, #3, #15, ...

........................................................................
.............................. CYCLE    6 ..............................
........................................................................
     iter. time                 ...        0 min,  0.000 sec
 * total energy  :    -6.0564702 Eh     change       -0.4834845E-04 Eh
   gradient norm :     0.0040226 Eh/α   predicted    -0.3862116E-04 ( -20.12%)
   displ. norm   :     0.0269396 α      lambda       -0.4120770E-04
   maximum displ.:     0.0125895 α      in ANC's #3, #2, #34, ...

........................................................................
.............................. CYCLE    7 ..............................
........................................................................
     iter. time                 ...        0 min,  0.000 sec
 * total energy  :    -6.0564992 Eh     change       -0.2901970E-04 Eh
   gradient norm :     0.0039255 Eh/α   predicted    -0.2062680E-04 ( -28.92%)
   displ. norm   :     0.0259373 α      lambda       -0.2709616E-04
   maximum displ.:     0.0141348 α      in ANC's #3, #2, #34, ...

........................................................................
.............................. CYCLE    8 ..............................
........................................................................
     iter. time                 ...        0 min,  0.000 sec
 * total energy  :    -6.0565172 Eh     change       -0.1799493E-04 Eh
   gradient norm :     0.0028990 Eh/α   predicted    -0.1356088E-04 ( -24.64%)
   displ. norm   :     0.0162151 α      lambda       -0.1104100E-04
   maximum displ.:     0.0101508 α      in ANC's #3, #1, #2, ...

........................................................................
.............................. CYCLE    9 ..............................
........................................................................
     iter. time                 ...        0 min,  0.000 sec
 * total energy  :    -6.0565248 Eh     change       -0.7649039E-05 Eh
   gradient norm :     0.0016525 Eh/α   predicted    -0.5530196E-05 ( -27.70%)
   displ. norm   :     0.0183108 α      lambda       -0.6233498E-05
   maximum displ.:     0.0120438 α      in ANC's #3, #1, #2, ...

........................................................................
.............................. CYCLE   10 ..............................
........................................................................
     iter. time                 ...        0 min,  0.000 sec
 * total energy  :    -6.0565299 Eh     change       -0.5093155E-05 Eh
   gradient norm :     0.0015842 Eh/α   predicted    -0.3118858E-05 ( -38.76%)
   displ. norm   :     0.0070280 α      lambda       -0.2591034E-05
   maximum displ.:     0.0036725 α      in ANC's #3, #1, #32, ...

   *** FAILED TO CONVERGE GEOMETRY OPTIMIZATION IN 10 ITERATIONS ***


 ANCopt (total)                0 d,  0 h,  0 min,  0.007 sec
 optimizer setup                ...        0 min,  0.000 sec (  1.472%)
 model hessian                  ...        0 min,  0.000 sec (  5.317%)
 ANC generation                 ...        0 min,  0.001 sec ( 10.273%)
 coordinate transformation      ...        0 min,  0.000 sec (  0.417%)
 single point calculation       ...        0 min,  0.005 sec ( 70.789%)
 optimization log               ...        0 min,  0.000 sec (  5.504%)
 hessian update                 ...        0 min,  0.000 sec (  0.611%)
 rational function              ...        0 min,  0.000 sec (  3.399%)

================
 final structure:
================
ATOM      1  C   GLY A  13       1.460  -8.379  -5.801  1.00  0.00           C  
ATOM      2  O   GLY A  13       0.461  -8.064  -6.397  1.00  0.00           O  
ATOM      3  N   GLY A  14       2.728  -8.233  -6.281  1.00  0.00           N  
ATOM      4  CA  GLY A  14       2.999  -7.603  -7.566  1.00  0.00           C  
ATOM      5  C   GLY A  14       3.237  -6.122  -7.413  1.00  0.00           C  
ATOM      6  O   GLY A  14       2.392  -5.485  -6.817  1.00  0.00           O  
ATOM      7  H   GLY A  14       3.551  -8.391  -5.697  1.00  0.00           H  
ATOM      8  HA2 GLY A  14       3.826  -8.107  -8.070  1.00  0.00           H  
ATOM      9  HA3 GLY A  14       2.105  -7.753  -8.188  1.00  0.00           H  
ATOM     10  N   GLY A  15       4.361  -5.452  -7.937  1.00  0.00           N  
ATOM     11  CA  GLY A  15       5.429  -6.010  -8.757  1.00  0.00           C  
ATOM     12  C   GLY A  15       5.288  -5.641 -10.209  1.00  0.00           C  
ATOM     13  O   GLY A  15       4.428  -6.166 -10.885  1.00  0.00           O  
ATOM     14  H   GLY A  15       4.379  -4.435  -7.897  1.00  0.00           H  
ATOM     15  HA2 GLY A  15       6.397  -5.680  -8.374  1.00  0.00           H  
ATOM     16  HA3 GLY A  15       5.431  -7.103  -8.669  1.00  0.00           H  
ATOM     17  N   GLY A  16       6.183  -4.711 -10.708  1.00  0.00           N  
ATOM     18  CA  GLY A  16       6.168  -4.245 -12.087  1.00  0.00           C  
ATOM     19  C   GLY A  16       5.780  -2.787 -12.173  1.00  0.00           C  
ATOM     20  O   GLY A  16       4.764  -2.452 -11.598  1.00  0.00           O  
ATOM     21  H   GLY A  16       6.812  -4.198 -10.090  1.00  0.00           H  
ATOM     22  HA2 GLY A  16       7.142  -4.437 -12.543  1.00  0.00           H  
ATOM     23  HA3 GLY A  16       5.425  -4.846 -12.622  1.00  0.00           H  
ATOM     24  N   GLY A  17       6.507  -1.835 -12.877  1.00  0.00           N  
ATOM     25  CA  GLY A  17       7.758  -2.048 -13.592  1.00  0.00           C  
ATOM     26  C   GLY A  17       8.008  -1.020 -14.641  1.00  0.00           C  
ATOM     27  O   GLY A  17       7.145  -0.661 -15.394  1.00  0.00           O  
ATOM     28  H   GLY A  17       6.116  -0.903 -12.993  1.00  0.00           H  
ATOM     29  HA2 GLY A  17       8.575  -2.090 -12.866  1.00  0.00           H  
ATOM     30  HA3 GLY A  17       7.711  -3.015 -14.103  1.00  0.00           H  
ATOM     31  N   ALA A  18       9.319  -0.542 -14.749  1.00  0.00           N  
ATOM     32  CA  ALA A  18       9.805   0.221 -15.801  1.00  0.00           C  
ATOM     33  H   ALA A  18      10.068  -0.976 -14.197  1.00  0.00           H  
ATOM     34  HA  ALA A  18       9.297   0.088 -16.696  1.00  0.00           H  
END

 Bond Distances (Angstroems)
 ---------------------------
C1-O2=1.2046         C1-N3=1.3635         O2-C1=1.2046         N3-C1=1.3635         N3-C4=1.4564         N3-H7=1.0223         
C4-N3=1.4564         C4-C5=1.5076         C4-H8=1.0909         C4-H9=1.0994         C5-C4=1.5076         C5-O6=1.2151         
C5-N10=1.4095        O6-C5=1.2151         H7-N3=1.0223         H8-C4=1.0909         H9-C4=1.0994         N10-C5=1.4095        
N10-C11=1.4577       N10-H14=1.0174       C11-N10=1.4577       C11-C12=1.5047       C11-H15=1.0916       C11-H16=1.0967       
C12-C11=1.5047       C12-O13=1.2136       C12-N17=1.3836       O13-C12=1.2136       H14-N10=1.0174       H15-C11=1.0916       
H16-C11=1.0967       N17-C12=1.3836       N17-C18=1.4556       N17-H21=1.0202       C18-N17=1.4556       C18-C19=1.5113       
C18-H22=1.0929       C18-H23=1.0956       C19-C18=1.5113       C19-O20=1.2138       C19-N24=1.3895       O20-C19=1.2138       
H21-N17=1.0202       H22-C18=1.0929       H23-C18=1.0956       N24-C19=1.3895       N24-C25=1.4568       N24-H28=1.0174       
C25-N24=1.4568       C25-C26=1.4898       C25-H29=1.0937       C25-H30=1.0949       C26-C25=1.4898       C26-O27=1.2007       
C26-N31=1.3997       O27-C26=1.2007       H28-N24=1.0174       H29-C25=1.0937       H30-C25=1.0949       N31-C26=1.3997       
N31-C32=1.3873       N31-H33=1.0263       C32-N31=1.3873       C32-H34=1.0379       H33-N31=1.0263       H34-C32=1.0379       
 C  H  Rav=1.0882 sigma=0.0180  Rmin=1.0379  Rmax=1.0994     9
 C  C  Rav=1.5034 sigma=0.0082  Rmin=1.4898  Rmax=1.5113     4
 N  H  Rav=1.0207 sigma=0.0034  Rmin=1.0174  Rmax=1.0263     5
 N  C  Rav=1.4160 sigma=0.0350  Rmin=1.3635  Rmax=1.4577    10
 O  C  Rav=1.2096 sigma=0.0058  Rmin=1.2007  Rmax=1.2151     5

 selected bond angles (degree)
 --------------------
N3-C1-O2=124.62                C4-N3-C1=122.05                H7-N3-C1=122.08                H7-N3-C4=114.89                
C5-C4-N3=111.35                H8-C4-N3=110.42                H8-C4-C5=112.42                H9-C4-N3=106.75                
H9-C4-C5=108.61                H9-C4-H8=107.01                O6-C5-C4=117.12                N10-C5-C4=123.73               
N10-C5-O6=119.14               C11-N10-C5=127.65              H14-N10-C5=118.40              H14-N10-C11=113.01             

 selected dihedral angles (degree)
 ---------------------------------
C4-N3-C1-O2=  3.21            H7-N3-C1-O2=171.33            C5-C4-N3-C1= 91.66            C5-C4-N3-H7=282.75            
H8-C4-N3-C1=217.29            H8-C4-N3-H7= 48.38            H9-C4-N3-C1=333.27            H9-C4-N3-H7=164.37            
O6-C5-C4-N3=307.25            O6-C5-C4-H8=182.75            O6-C5-C4-H9= 64.52            N10-C5-C4-N3=128.29           
N10-C5-C4-H8=  3.78           N10-C5-C4-H9=245.56           C11-N10-C5-C4=  3.66          C11-N10-C5-O6=184.72          
H14-N10-C5-C4=171.78          H14-N10-C5-O6=352.83          
           -------------------------------------------------
          |                Final Singlepoint                |
           -------------------------------------------------
         :::::::::::::::::::::::::::::::::::::::::::::::::::::
         ::                     SUMMARY                     ::
         :::::::::::::::::::::::::::::::::::::::::::::::::::::
         :: total energy              -6.056533104051 Eh    ::
         :: total w/o Gsolv           -6.011807024636 Eh    ::
         :: total w/o Gsasa/hb        -6.049155247264 Eh    ::
         :: gradient norm              0.001234857710 Eh/a0 ::
         ::.................................................::
         :: bond energy               -6.093399159151 Eh    ::
         :: angle energy               0.031885209756 Eh    ::
         :: torsion energy             0.010026552594 Eh    ::
         :: repulsion energy           0.375970640052 Eh    ::
         :: electrostat energy        -0.314717681732 Eh    ::
         :: dispersion energy         -0.022221888450 Eh    ::
         :: HB energy                 -0.000434464689 Eh    ::
         :: XB energy                  0.000000000000 Eh    ::
         :: bonded atm energy         -0.008119267759 Eh    ::
         :: external energy            0.000000000000 Eh    ::
         :: -> Gsolv                  -0.044726079415 Eh    ::
         ::    -> Gborn               -0.037348222629 Eh    ::
         ::    -> Gsasa                0.009767414397 Eh    ::
         ::    -> Ghb                 -0.017510210438 Eh    ::
         ::    -> Gshift               0.000364939255 Eh    ::
         :: add. restraining           0.009203034743 Eh    ::
         :: total charge               0.000000000000 e     ::
         ::.................................................::
         :: atomisation energy         0.000000000000 Eh    ::
         :::::::::::::::::::::::::::::::::::::::::::::::::::::

           -------------------------------------------------
          |                Property Printout                |
           -------------------------------------------------
           -------------------------------------------------
          |                Geometry Summary                 |
           -------------------------------------------------

      molecular mass/u    :      284.2490701
   center of mass at/Å    :        5.1852248      -4.3715188     -10.5730254
  moments of inertia/u·Å² :        0.3427859E+03   0.6541687E+04   0.6622615E+04
rotational constants/cm⁻¹ :        0.4917831E-01   0.2576955E-02   0.2545465E-02

 * 27 selected distances

     #   Z          #   Z                                           value/Å
     1   6  C       3   7  N                                      1.3635396
     3   7  N       4   6  C                                      1.4563550
     5   6  C       6   8  O                                      1.2151082
     3   7  N       7   1  H                                      1.0223067
     4   6  C       8   1  H                                      1.0908705
     4   6  C       9   1  H                                      1.0994194
     5   6  C      10   7  N                                      1.4095445
    10   7  N      11   6  C                                      1.4576907 (max)
    12   6  C      13   8  O                                      1.2135877
    10   7  N      14   1  H                                      1.0174047
    11   6  C      15   1  H                                      1.0916264
    11   6  C      16   1  H                                      1.0966826
    12   6  C      17   7  N                                      1.3835987
    17   7  N      18   6  C                                      1.4556375
    19   6  C      20   8  O                                      1.2138054
    17   7  N      21   1  H                                      1.0202238
    18   6  C      22   1  H                                      1.0928837
    18   6  C      23   1  H                                      1.0955694
    19   6  C      24   7  N                                      1.3895447
    24   7  N      25   6  C                                      1.4567871
    26   6  C      27   8  O                                      1.2007230
    24   7  N      28   1  H                                      1.0173608 (min)
    25   6  C      29   1  H                                      1.0937136
    25   6  C      30   1  H                                      1.0949217
    26   6  C      31   7  N                                      1.3997029
    31   7  N      33   1  H                                      1.0263154
    32   6  C      34   1  H                                      1.0378520

 * 4 distinct bonds (by element types)

   Z      Z             #   av. dist./Å        max./Å        min./Å
   1 H    6 C           9     1.0881710     1.0994194     1.0378520
   1 H    7 N           5     1.0207223     1.0263154     1.0173608
   6 C    7 N           9     1.4191556     1.4576907     1.3635396
   6 C    8 O           4     1.2108061     1.2151082     1.2007230


optimized geometry written to: xtbopt.pdb


           -------------------------------------------------
          | TOTAL ENERGY               -6.056533104051 Eh   |
          | GRADIENT NORM               0.001234857710 Eh/α |
           -------------------------------------------------
########################################################################
[WARNING] Runtime exception occurred
-1- gfnff_setup: Could not read topology file.
########################################################################

------------------------------------------------------------------------
 unit  open   action     filename
   10 false : read       xtb_settings.inp
   10 false : read       substructure_3.pdb
   10 false : read       xtb_settings.inp
   10 false : written    gfnff_topo
   10 false : written    gfnff_adjacency
   10 false : written    gfnff_charges
   10 false : deleted    .xtboptok
   10 false : replaced   xtbopt.log
   11 false : created    .xtboptok
   11 false : replaced   gfnff_charges
   10 false : replaced   xtbopt.pdb

------------------------------------------------------------------------
 * finished run on 2025/05/27 at 09:37:31.571     
------------------------------------------------------------------------
 total:
 * wall-time:     0 d,  0 h,  0 min,  0.013 sec
 *  cpu-time:     0 d,  0 h,  0 min,  0.012 sec
 * ratio c/w:     0.999 speedup
 SCF:
 * wall-time:     0 d,  0 h,  0 min,  0.001 sec
 *  cpu-time:     0 d,  0 h,  0 min,  0.001 sec
 * ratio c/w:     0.994 speedup
 ANC optimizer:
 * wall-time:     0 d,  0 h,  0 min,  0.008 sec
 *  cpu-time:     0 d,  0 h,  0 min,  0.008 sec
 * ratio c/w:     1.000 speedup

