34
 energy: -6.046373260829 gnorm: 0.184791396842 xtb: 6.6.1 (8d0f1dd)
 C           1.53900000000000       -8.52100000000000       -5.81400000000000
 O           0.62000000000000       -8.62200000000000       -6.59800000000000
 N           2.78700000000000       -8.09200000000000       -6.21500000000000
 C           3.00500000000000       -7.60700000000000       -7.56600000000000
 C           3.14700000000000       -6.10100000000000       -7.57900000000000
 O           2.22500000000000       -5.45800000000000       -7.11800000000000
 H           3.50500000000000       -7.83900000000000       -5.53600000000000
 H           3.86300000000000       -8.11000000000000       -8.00500000000000
 H           2.12400000000000       -7.87800000000000       -8.15400000000000
 N           4.25300000000000       -5.42800000000000       -8.07800000000000
 C           5.42800000000000       -5.98900000000000       -8.74400000000000
 C           5.41900000000000       -5.68200000000000      -10.22200000000000
 O           4.64300000000000       -6.27300000000000      -10.94200000000000
 H           4.19600000000000       -4.41600000000000       -8.15000000000000
 H           6.33100000000000       -5.60100000000000       -8.27900000000000
 H           5.45300000000000       -7.07700000000000       -8.61400000000000
 N           6.28800000000000       -4.72700000000000      -10.71200000000000
 C           6.17800000000000       -4.25200000000000      -12.08800000000000
 C           5.81800000000000       -2.78400000000000      -12.10400000000000
 O           4.86300000000000       -2.43600000000000      -11.44000000000000
 H           6.79400000000000       -4.10500000000000      -10.08000000000000
 H           7.12100000000000       -4.43900000000000      -12.60600000000000
 H           5.39500000000000       -4.82600000000000      -12.57200000000000
 N           6.51400000000000       -1.84100000000000      -12.84400000000000
 C           7.76000000000000       -2.02200000000000      -13.57400000000000
 C           8.17300000000000       -0.77200000000000      -14.26100000000000
 O           7.56800000000000        0.25900000000000      -14.06100000000000
 H           6.22200000000000       -0.86200000000000      -12.79700000000000
 H           8.53900000000000       -2.34700000000000      -12.87300000000000
 H           7.62000000000000       -2.82700000000000      -14.31400000000000
 N           9.25400000000000       -0.82800000000000      -15.10600000000000
 C           9.74000000000000        0.36300000000000      -15.76300000000000
 H           9.86400000000000       -1.65100000000000      -15.17600000000000
 H           8.90100000000000        0.75500000000000      -16.36100000000000
34
 energy: -6.059324286732 gnorm: 0.080897592577 xtb: 6.6.1 (8d0f1dd)
 C           1.54759762820134       -8.52537005850440       -5.82085041789273
 O           0.62249431600518       -8.62392720388651       -6.59098884560054
 N           2.78322560831915       -8.09412856677359       -6.21604248787354
 C           3.00379422569772       -7.60435947416136       -7.56569659969314
 C           3.14585553081316       -6.10128781643391       -7.58006432127031
 O           2.22415233643908       -5.45863495524572       -7.11882937006166
 H           3.50199146884660       -7.83932098082555       -5.53625935051698
 H           3.86333630430274       -8.11010288900213       -8.00550434438468
 H           2.12372652332032       -7.87870682475111       -8.15642242676041
 N           4.25208014699933       -5.42827087064178       -8.07874486593252
 C           5.42617557276775       -5.99125592010430       -8.74685401735265
 C           5.41876272503283       -5.68189639303356      -10.22200326143087
 O           4.64346836569874       -6.27281684914984      -10.94256837672751
 H           4.19581515486556       -4.41576380705409       -8.14970377849204
 H           6.33098990190906       -5.60046077445206       -8.27830416318779
 H           5.45293069926604       -7.07648175839646       -8.61398181539123
 N           6.28739614144882       -4.72608503296358      -10.71049068264288
 C           6.17998991357755       -4.24710175177311      -12.08304005411628
 C           5.81745012404865       -2.78296442802178      -12.10344350744430
 O           4.86261484155888       -2.43536515490044      -11.43984852325935
 H           6.79250993833157       -4.10495680155951      -10.07766740639094
 H           7.12242230371628       -4.43586483341985      -12.60288145702911
 H           5.39397696814300       -4.82517841290662      -12.57249574530490
 N           6.51346009846057       -1.84000860102292      -12.84298765549694
 C           7.76062720788133       -2.02350771360982      -13.57203707438937
 C           8.16921732189797       -0.76469137415987      -14.25694692472617
 O           7.56024042004382        0.25746710201782      -14.06639427412031
 H           6.22211757686765       -0.86106601572165      -12.79595422057744
 H           8.53884165125528       -2.34380030381827      -12.87035457194708
 H           7.62189875432713       -2.82512719881193      -14.31118064846423
 N           9.26204466009681       -0.81848854309268      -15.11258622923153
 C           9.72458001811552        0.30140603828444      -15.81530461895247
 H           9.86980010170711       -1.64388194971092      -15.16233691535833
 H           8.91441545003749        0.78600011760709      -16.32723104797977
34
 energy: -6.064765960447 gnorm: 0.024681703171 xtb: 6.6.1 (8d0f1dd)
 C           1.55280847544988       -8.53203192541282       -5.82806575227892
 O           0.62011442998110       -8.61907137707803       -6.58523632584332
 N           2.78019829808985       -8.09524903595421       -6.21581654973592
 C           3.00270013473383       -7.60134983160242       -7.56471476950522
 C           3.14630638637056       -6.10098389072996       -7.57944598396450
 O           2.22543508067674       -5.45792240891667       -7.11716793486836
 H           3.50150172794662       -7.84026779384352       -5.53669726700669
 H           3.86187685499644       -8.11026722319624       -8.00679221053703
 H           2.12278595391331       -7.87793812982456       -8.15708357508985
 N           4.25295468289482       -5.42843842618188       -8.07813436854274
 C           5.42487227524771       -5.99404350847666       -8.75007470096765
 C           5.41793487971090       -5.68189137292308      -10.22276121995575
 O           4.64164145336385       -6.27170145646092      -10.94315463925632
 H           4.19792368138385       -4.41571570837795       -8.14781099087871
 H           6.33117963995884       -5.60187134545479       -8.27883541872405
 H           5.45249321619624       -7.07718984879946       -8.61473103481132
 N           6.28729198315056       -4.72737457591700      -10.71171648207508
 C           6.18106277169877       -4.24431606248349      -12.08025808688495
 C           5.81753000028536       -2.78332019048144      -12.10379237469504
 O           4.86284018122539       -2.43565117421504      -11.44025278590270
 H           6.79382393106405       -4.10743387945379      -10.07934999394731
 H           7.12075425715316       -4.43692203500204      -12.60468233652256
 H           5.39139036657473       -4.82421453426521      -12.57309994598814
 N           6.51312195686856       -1.84016363490576      -12.84357426660952
 C           7.76237501794114       -2.02620608090704      -13.57144540323526
 C           8.16675741188964       -0.75956391943522      -14.25035313670984
 O           7.55371695612612        0.25592461526246      -14.07190890512178
 H           6.22251319236956       -0.86090691909332      -12.79525245712084
 H           8.53900156704939       -2.34059405090092      -12.86709641055329
 H           7.62534682498367       -2.82519037204687      -14.30959051582191
 N           9.27767077203107       -0.80300552669041      -15.10146180896363
 C           9.69524097384280        0.25021825293115      -15.87355974741285
 H           9.88746185808882       -1.62990568355850      -15.13431081631704
 H           8.91937280674267        0.80855905439564      -16.30777178415189
34
 energy: -6.065948479452 gnorm: 0.019429438050 xtb: 6.6.1 (8d0f1dd)
 C           1.55318379785311       -8.53793392115401       -5.83276024773292
 O           0.61756465627530       -8.61687944486965       -6.58613494825759
 N           2.77951149970726       -8.09484241826027       -6.21522368160524
 C           3.00306211253405       -7.60118207904674       -7.56440325833806
 C           3.14552137959316       -6.10122081080460       -7.58005694716210
 O           2.22335886787599       -5.45864323885462       -7.11929697914495
 H           3.50014713125151       -7.83804513506481       -5.53605048047796
 H           3.86236946390618       -8.11023097639387       -8.00642692856189
 H           2.12392400296475       -7.87954856398447       -8.15775965685503
 N           4.25217468370773       -5.42781003813496       -8.07787556740758
 C           5.42443893870044       -5.99347410329717       -8.74975880873775
 C           5.41864602939216       -5.68154493915760      -10.22203873452832
 O           4.64269581300807       -6.27183829893906      -10.94262566844915
 H           4.19619776655907       -4.41532742286106       -8.14847406135478
 H           6.33011029211023       -5.59993376950050       -8.27745224320395
 H           5.45315318433225       -7.07616298988007       -8.61308258302932
 N           6.28845260854863       -4.72801691950899      -10.71198144528409
 C           6.18225782906686       -4.24375179835920      -12.07892027535219
 C           5.81909328347975       -2.78328370902076      -12.10259939323601
 O           4.86527124682320       -2.43509631986888      -11.43783447955594
 H           6.79544545396090       -4.10766736993349      -10.08036521594788
 H           7.11979278435108       -4.43879559183791      -12.60648492779985
 H           5.39150631457063       -4.82323512607720      -12.57191731248148
 N           6.51382147973571       -1.84000755184830      -12.84325641156549
 C           7.76311439340964       -2.02759892274044      -13.57243506346904
 C           8.16785283120147       -0.75974409397413      -14.24782761529056
 O           7.55778310186676        0.25669364386921      -14.06975770526183
 H           6.22395243674493       -0.86041917002884      -12.79379201404173
 H           8.53926155632204       -2.34019700784540      -12.86652858740059
 H           7.62542690527235       -2.82557204150608      -14.30978320776430
 N           9.28490510811097       -0.79830241230270      -15.09260040392133
 C           9.67630196334180        0.22084822829922      -15.91358908992130
 H           9.89272137676011       -1.62652433636089      -15.12623065828764
 H           8.91697970666186        0.82928864924826      -16.29067539857213
34
 energy: -6.066212215478 gnorm: 0.008070832597 xtb: 6.6.1 (8d0f1dd)
 C           1.55330983912274       -8.54099856164343       -5.83417369844797
 O           0.61588661050761       -8.61423303382494       -6.58611681358954
 N           2.78036065496604       -8.09465765560159       -6.21463914030596
 C           3.00350409505514       -7.60167739340409       -7.56421030047770
 C           3.14553856582526       -6.10134852922580       -7.57997051904901
 O           2.22272810941319       -5.45892061865023       -7.11999122071389
 H           3.49969647877690       -7.83629541703698       -5.53530426040371
 H           3.86241540698683       -8.11027199293449       -8.00642104111136
 H           2.12432970562926       -7.87987205755221       -8.15754089597319
 N           4.25218271747546       -5.42758670884967       -8.07748531111123
 C           5.42447877425662       -5.99304309207316       -8.74933607425969
 C           5.41891193859806       -5.68152323837631      -10.22178569548526
 O           4.64291895944852       -6.27186106621029      -10.94242171143910
 H           4.19556148410040       -4.41527356453580       -8.14883323020146
 H           6.32984294003112       -5.59953003470158       -8.27722857376100
 H           5.45323501231614       -7.07595434824825       -8.61276026609296
 N           6.28929163540074       -4.72894824422319      -10.71277790168468
 C           6.18227339562301       -4.24422917786058      -12.07920399469488
 C           5.81964980066542       -2.78344184256328      -12.10204023737564
 O           4.86629877074685       -2.43488744098687      -11.43660330927970
 H           6.79711014503531       -4.10837470532457      -10.08193005630382
 H           7.11819425740714       -4.44052177254304      -12.60903877774108
 H           5.39121323482043       -4.82264555517788      -12.57124444773186
 N           6.51322279287277       -1.84024021856356      -12.84385879290875
 C           7.76242258529057       -2.02796528149710      -13.57382809880125
 C           8.16791954491379       -0.76064939133942      -14.24836951176840
 O           7.55941534499673        0.25746242095622      -14.06811580708748
 H           6.22322481013513       -0.86066969192458      -12.79443979339741
 H           8.53856283376368       -2.33969935556382      -12.86648563922812
 H           7.62542257990343       -2.82612346216516      -14.31016781361263
 N           9.28851804328467       -0.79397350152254      -15.08483358658417
 C           9.66415494945665        0.21126132453305      -15.92885795664696
 H           9.89545212528217       -1.62281835348833      -15.12224932734256
 H           8.92275185789223        0.83351156212349      -16.28373619538754
34
 energy: -6.066255165731 gnorm: 0.007406680201 xtb: 6.6.1 (8d0f1dd)
 C           1.55330911258148       -8.54206974011922       -5.83438519106401
 O           0.61635063090334       -8.61541036757700       -6.58717579109319
 N           2.78106089731077       -8.09415550623043       -6.21402919530321
 C           3.00436745436431       -7.60248260753798       -7.56399659459538
 C           3.14455308232593       -6.10156274137022       -7.58088996025457
 O           2.22032568733818       -5.45982910768078       -7.12268233154933
 H           3.49822816546483       -7.83302930425264       -5.53382448791692
 H           3.86415699084455       -8.10999362142180       -8.00478812325035
 H           2.12587358388151       -7.88163666937880       -8.15768798439311
 N           4.25101275517968       -5.42695941899157       -8.07780551227842
 C           5.42459352036089       -5.99142008814608       -8.74788326753738
 C           5.41976194489555       -5.68137403047528      -10.22086416506956
 O           4.64506276166309       -6.27317217914156      -10.94175741409944
 H           4.19309207640234       -4.41483112407511       -8.15041702903097
 H           6.32906487794773       -5.59692938801482       -8.27576682376109
 H           5.45422242571512       -7.07448108481486       -8.61076009176890
 N           6.28960872973808       -4.72837772546531      -10.71217764733944
 C           6.18275466739047       -4.24490306733554      -12.07922228458533
 C           5.81955967700140       -2.78386802481258      -12.10233736268689
 O           4.86665110620906       -2.43507652748062      -11.43634719721685
 H           6.79634097392101       -4.10651437496057      -10.08160223962796
 H           7.11898905091495       -4.44074892682987      -12.60850417716540
 H           5.39304379715638       -4.82393004490342      -12.57097887685249
 N           6.51278761847652       -1.84072122602279      -12.84450912927223
 C           7.76088988074054       -2.02874020204978      -13.57583802196568
 C           8.16849320308829       -0.76262954942400      -14.25036054531681
 O           7.56465085733648        0.25821276889875      -14.06356310349434
 H           6.22293306088258       -0.86118441259342      -12.79524964649827
 H           8.53782887318005       -2.34206809894420      -12.86917042686058
 H           7.62250178417011       -2.82639678434071      -14.31221778520305
 N           9.28675396346315       -0.79644907009299      -15.08715491508877
 C           9.66500553223005        0.20504159677149      -15.93334005252766
 H           9.88959227948695       -1.62778815394947      -15.13106575391056
 H           8.92657897743461        0.84947880276319      -16.26764687142182
34
 energy: -6.066279172266 gnorm: 0.002235450325 xtb: 6.6.1 (8d0f1dd)
 C           1.55340734152943       -8.54151886774192       -5.83386523015773
 O           0.61646386740381       -8.61523201430300       -6.58681210718112
 N           2.78130120909608       -8.09466344020419       -6.21435432257947
 C           3.00419292134307       -7.60256443892071       -7.56418655435825
 C           3.14475896306377       -6.10153294714779       -7.58070677979781
 O           2.22081943446762       -5.45969430519294       -7.12216275300742
 H           3.49824540058315       -7.83334848168766       -5.53397565392306
 H           3.86387253835225       -8.11006053095751       -8.00507865995448
 H           2.12543908415575       -7.88115197394139       -8.15762687694379
 N           4.25128290768273       -5.42715063826258       -8.07775252347803
 C           5.42465668235149       -5.99163125319184       -8.74799458972855
 C           5.41954359292901       -5.68141963623654      -10.22100993926976
 O           4.64471429302542       -6.27300000100157      -10.94190137462492
 H           4.19359637787982       -4.41496255347245       -8.15013508109155
 H           6.32932197310351       -5.59754065454606       -8.27610570356898
 H           5.45399117397349       -7.07479944636905       -8.61122186420346
 N           6.28938671437472       -4.72831057717001      -10.71212065902970
 C           6.18256556810025       -4.24488332048262      -12.07936681472567
 C           5.81935368327232       -2.78374488211497      -12.10237268671662
 O           4.86615992277506       -2.43500486801434      -11.43682509587181
 H           6.79611617360778       -4.10658439480127      -10.08141425879396
 H           7.11918664713572       -4.44025461229201      -12.60810799297869
 H           5.39318265105974       -4.82398193077360      -12.57129013945199
 N           6.51281138442866       -1.84061477881892      -12.84430809241835
 C           7.76096088120797       -2.02829855155395      -13.57521102464869
 C           8.16832529946581       -0.76275965085817      -14.25088339953571
 O           7.56329572552415        0.25780038894406      -14.06468508962874
 H           6.22277160104034       -0.86117863077707      -12.79534493950536
 H           8.53801848897929       -2.34155162753275      -12.86856498740098
 H           7.62318265525543       -2.82633573083093      -14.31161750932502
 N           9.28610941751566       -0.79680715990965      -15.08790642403928
 C           9.66547571676332        0.20805940461809      -15.93084477957125
 H           9.88973000361975       -1.62795732719714      -15.13112125850867
 H           8.92775970493361        0.84667943274247      -16.26912483398111
34
 energy: -6.066284268744 gnorm: 0.000933154004 xtb: 6.6.1 (8d0f1dd)
 C           1.55358790238121       -8.54120474561839       -5.83345786169871
 O           0.61663004279663       -8.61514948024240       -6.58649664936860
 N           2.78160938633573       -8.09507963169649       -6.21450920265900
 C           3.00417493553795       -7.60261107883286       -7.56422676609788
 C           3.14483009921952       -6.10148933098220       -7.58062996249785
 O           2.22097533243646       -5.45964956833976       -7.12199824217836
 H           3.49812106277076       -7.83311768873806       -5.53384607401491
 H           3.86391587073731       -8.11004138575759       -8.00500653188190
 H           2.12531968726415       -7.88097366872088       -8.15752415491176
 N           4.25137620630718       -5.42720880586093       -8.07775014856607
 C           5.42471460746072       -5.99162986182663       -8.74795929622980
 C           5.41943543952559       -5.68142111719517      -10.22103757242656
 O           4.64466584151826       -6.27304157105298      -10.94192419820628
 H           4.19375294937808       -4.41499044717824       -8.15006769637726
 H           6.32944610358012       -5.59769000165622       -8.27619521599315
 H           5.45396985475492       -7.07485429919501       -8.61129647802751
 N           6.28909494632038       -4.72806424383763      -10.71197357466696
 C           6.18248249052146       -4.24499121785495      -12.07950010527680
 C           5.81893668601374       -2.78386693143813      -12.10280863930282
 O           4.86540401198986       -2.43518560837790      -11.43776611729718
 H           6.79555889747450       -4.10621790398174      -10.08116868977424
 H           7.11969508486699       -4.43977573440980      -12.60741009969607
 H           5.39374914052522       -4.82458216809724      -12.57173156085179
 N           6.51272894000325       -1.84068964808598      -12.84438457350368
 C           7.76079392323439       -2.02815267919737      -13.57506174766139
 C           8.16828934436520       -0.76308074073198      -14.25138415336525
 O           7.56291777921899        0.25748404286795      -14.06505287293457
 H           6.22257222647171       -0.86132361430088      -12.79561422092858
 H           8.53802675469074       -2.34167248802113      -12.86865868532571
 H           7.62312046209743       -2.82631799882206      -14.31162515829356
 N           9.28541756231211       -0.79760676972536      -15.08906035043470
 C           9.66608371996492        0.20884866862452      -15.92992595273437
 H           9.88909033771988       -1.62882627435196      -15.13228023923819
 H           8.92951237020464        0.84817399263545      -16.26666720757849
34
 energy: -6.066286090112 gnorm: 0.000798317498 xtb: 6.6.1 (8d0f1dd)
 C           1.55375679962637       -8.54100647074812       -5.83318753497002
 O           0.61673060011771       -8.61500266708251       -6.58620212510535
 N           2.78188394329483       -8.09556640431605       -6.21468034200296
 C           3.00415563207103       -7.60256216738787       -7.56422295292640
 C           3.14491690524610       -6.10144600767030       -7.58054350406916
 O           2.22116566060341       -5.45959669733803       -7.12179307883260
 H           3.49803184689874       -7.83291728357797       -5.53373905330105
 H           3.86396833494649       -8.11002438317722       -8.00492001049824
 H           2.12524922983183       -7.88084570331339       -8.15742917110775
 N           4.25148013055680       -5.42727210197611       -8.07775057785753
 C           5.42476697585842       -5.99169558174743       -8.74798685054663
 C           5.41932420923723       -5.68139011452368      -10.22106872544712
 O           4.64459501040532       -6.27305089910942      -10.94193110606716
 H           4.19395856862369       -4.41502159330988       -8.14995725613304
 H           6.32957030018711       -5.59784050397823       -8.27626811363733
 H           5.45398937291184       -7.07491931484940       -8.61134021391636
 N           6.28866254305115       -4.72763726910845      -10.71172089440724
 C           6.18246080261814       -4.24503541735708      -12.07953234054101
 C           5.81840182272295       -2.78405370569856      -12.10344831507016
 O           4.86431192745332       -2.43547878238230      -11.43918491250503
 H           6.79469450461777       -4.10560429532727      -10.08075406146821
 H           7.12049177907199       -4.43913095014620      -12.60628547515338
 H           5.39456755398230       -4.82540799747801      -12.57229508206046
 N           6.51276995907153       -1.84074666034954      -12.84439594278646
 C           7.76076215611371       -2.02807193572200      -13.57491669945299
 C           8.16837343409772       -0.76321360427955      -14.25150083695881
 O           7.56276626419216        0.25723344547809      -14.06529756220034
 H           6.22256776317634       -0.86139974480387      -12.79567221655293
 H           8.53809867930977       -2.34197264018992      -12.86888070324206
 H           7.62285663183886       -2.82623386793056      -14.31173090136323
 N           9.28471657719433       -0.79856039084703      -15.09042771262712
 C           9.66636310425875        0.20858477690431      -15.93002982679513
 H           9.88843428646953       -1.62962817792266      -15.13335079796726
 H           8.93115669034273        0.85051511126621      -16.26355510242951
34
 energy: -6.066286567275 gnorm: 0.000281937102 xtb: 6.6.1 (8d0f1dd)
 C           1.55373537773558       -8.54106594944496       -5.83325578151808
 O           0.61666763255969       -8.61490484307051       -6.58619478556078
 N           2.78187484482148       -8.09559946801439       -6.21468424878695
 C           3.00414943280920       -7.60250837257766       -7.56419243851146
 C           3.14496510126979       -6.10145549676566       -7.58050801382485
 O           2.22125165132429       -5.45957696140539       -7.12170589411617
 H           3.49810555283629       -7.83302269572586       -5.53378530025860
 H           3.86391797040414       -8.11004422663543       -8.00497386886721
 H           2.12525338160601       -7.88083923037579       -8.15742441222019
 N           4.25152820135216       -5.42729402975374       -8.07772934961906
 C           5.42477831324435       -5.99178032692229       -8.74804457426116
 C           5.41930683804669       -5.68136598458523      -10.22108139202967
 O           4.64453884754675       -6.27299946426799      -10.94193105261391
 H           4.19405586696563       -4.41504220388848       -8.14988983997077
 H           6.32960338932938       -5.59792459284417       -8.27629642352690
 H           5.45398803677107       -7.07497591460953       -8.61138207382622
 N           6.28852544099778       -4.72747260715051      -10.71163630694903
 C           6.18249903723278       -4.24499032781075      -12.07947127408948
 C           5.81827945658717       -2.78410007260630      -12.10363756034065
 O           4.86388240170306       -2.43560392851191      -11.43976002137752
 H           6.79440171520054       -4.10536874471140      -10.08061206589516
 H           7.12071756803274       -4.43900167792206      -12.60594351386466
 H           5.39478837003065       -4.82557004271947      -12.57238198256102
 N           6.51287471474564       -1.84071434875732      -12.84430544775394
 C           7.76090374559201       -2.02810600552746      -13.57488781616740
 C           8.16849219526114       -0.76303017463904      -14.25117825795841
 O           7.56299778218476        0.25735670784578      -14.06506943117058
 H           6.22271754019124       -0.86133617683706      -12.79549927604376
 H           8.53817161417225       -2.34206190334877      -12.86890392823113
 H           7.62274825362903       -2.82616483014277      -14.31174828084475
 N           9.28467879566328       -0.79863753049943      -15.09055102245578
 C           9.66607392667428        0.20806486538506      -15.93059278177048
 H           9.88847878345570       -1.62952733850023      -15.13324467718555
 H           8.93104822002345        0.85066389734072      -16.26349690582870
