77
 energy: -14.047162371928 gnorm: 0.170342846231 xtb: 6.6.1 (8d0f1dd)
 C         -17.40000000000000      -16.53300000000000       15.82300000000000
 O         -16.41600000000000      -15.92200000000000       16.17000000000000
 N         -17.44300000000000      -17.33500000000000       14.72900000000000
 C         -16.29600000000000      -17.48600000000000       13.86900000000000
 C         -15.93000000000000      -16.16700000000000       13.24500000000000
 C         -16.49100000000000      -18.56500000000000       12.79800000000000
 O         -16.50800000000000      -15.78500000000000       12.24900000000000
 C         -15.25900000000000      -18.89500000000000       12.02300000000000
 C         -14.13800000000000      -18.11200000000000       11.81400000000000
 N         -15.05100000000000      -20.04100000000000       11.30700000000000
 C         -13.82100000000000      -19.89800000000000       10.71300000000000
 N         -13.26800000000000      -18.74500000000000       11.01100000000000
 H         -18.22200000000000      -17.97100000000000       14.56500000000000
 H         -15.45700000000000      -17.80200000000000       14.52400000000000
 H         -16.87800000000000      -19.47700000000000       13.26100000000000
 H         -17.26200000000000      -18.21500000000000       12.10500000000000
 H         -15.68800000000000      -20.83200000000000       11.22300000000000
 H         -13.96700000000000      -17.12700000000000       12.22000000000000
 H         -13.35500000000000      -20.63400000000000       10.06900000000000
 N         -14.93700000000000      -15.44600000000000       13.84100000000000
 C         -14.36800000000000      -14.28800000000000       13.19200000000000
 C         -13.49400000000000      -14.73600000000000       12.05400000000000
 C         -13.60600000000000      -13.37800000000000       14.16400000000000
 O         -12.31600000000000      -14.96000000000000       12.23900000000000
 C         -14.50400000000000      -12.49100000000000       14.95100000000000
 C         -15.56900000000000      -12.84700000000000       15.75700000000000
 N         -14.45500000000000      -11.12500000000000       14.96500000000000
 C         -15.48600000000000      -10.72000000000000       15.77400000000000
 N         -16.15900000000000      -11.74300000000000       16.24800000000000
 H         -14.41900000000000      -15.81300000000000       14.64000000000000
 H         -15.20900000000000      -13.71500000000000       12.77000000000000
 H         -12.99200000000000      -13.98700000000000       14.83400000000000
 H         -12.90500000000000      -12.76000000000000       13.59600000000000
 H         -13.79300000000000      -10.53200000000000       14.46500000000000
 H         -15.91500000000000      -13.85400000000000       15.96200000000000
 H         -15.73000000000000       -9.68900000000000       15.99700000000000
 N         -14.11900000000000      -14.89400000000000       10.84200000000000
 C         -13.37200000000000      -15.28800000000000        9.66200000000000
 C         -12.37200000000000      -14.21500000000000        9.33900000000000
 C         -14.28000000000000      -15.55900000000000        8.47300000000000
 O         -12.76100000000000      -13.11100000000000        9.01900000000000
 H         -15.14300000000000      -14.88000000000000       10.77100000000000
 H         -12.82700000000000      -16.20700000000000        9.93000000000000
 H         -13.70700000000000      -15.88200000000000        7.60400000000000
 H         -15.02100000000000      -16.32500000000000        8.70400000000000
 H         -14.81000000000000      -14.64700000000000        8.19700000000000
 N         -11.04800000000000      -14.54400000000000        9.44600000000000
 C         -10.01200000000000      -13.58800000000000        9.12300000000000
 C         -10.10700000000000      -13.22800000000000        7.65800000000000
 C          -8.62500000000000      -14.10200000000000        9.46700000000000
 O         -10.00900000000000      -14.10800000000000        6.82900000000000
 H         -10.74600000000000      -15.48700000000000        9.69500000000000
 H         -10.23300000000000      -12.68500000000000        9.71600000000000
 H          -8.39700000000000      -14.98500000000000        8.86900000000000
 H          -7.86000000000000      -13.35400000000000        9.25600000000000
 H          -8.55600000000000      -14.37900000000000       10.51900000000000
 N         -10.29400000000000      -11.90400000000000        7.33700000000000
 C         -10.28900000000000      -11.46200000000000        5.95800000000000
 C          -8.92100000000000      -11.73200000000000        5.35600000000000
 C         -10.76900000000000      -10.00800000000000        5.77600000000000
 O          -7.97900000000000      -11.02200000000000        5.64300000000000
 C         -12.22100000000000       -9.87000000000000        6.23500000000000
 C          -9.86700000000000       -9.00400000000000        6.48900000000000
 H         -10.25900000000000      -11.17700000000000        8.05100000000000
 H         -11.00800000000000      -12.12000000000000        5.43500000000000
 H         -10.72400000000000       -9.78900000000000        4.69400000000000
 H         -12.31400000000000      -10.11200000000000        7.29300000000000
 H         -12.59100000000000       -8.85300000000000        6.09300000000000
 H         -12.87900000000000      -10.54600000000000        5.68900000000000
 H          -9.90600000000000       -9.13800000000000        7.56900000000000
 H          -8.82700000000000       -9.12000000000000        6.18300000000000
 H         -10.16600000000000       -7.97700000000000        6.27800000000000
 N          -8.76100000000000      -12.84400000000000        4.54600000000000
 C          -7.45100000000000      -13.46200000000000        4.45500000000000
 H          -9.53200000000000      -13.51200000000000        4.46800000000000
 H          -6.82200000000000      -12.98800000000000        5.22600000000000
 H          -7.52500000000000      -14.52200000000000        4.74800000000000
77
 energy: -14.055920436834 gnorm: 0.064428058048 xtb: 6.6.1 (8d0f1dd)
 C         -17.39522254400227      -16.53941520447748       15.81974316633759
 O         -16.42181111010102      -15.91772049714870       16.16987779658763
 N         -17.44528148477335      -17.33169852211093       14.73065085643075
 C         -16.29327803668675      -17.48821369728045       13.86940270666037
 C         -15.93054430936163      -16.16707551537375       13.24433563329913
 C         -16.49147876122434      -18.56477702607374       12.79744823035686
 O         -16.50836283729264      -15.78483516143947       12.24789410092114
 C         -15.25903363183687      -18.89485864811604       12.02314563204453
 C         -14.13789800355158      -18.11181509342946       11.81419219724569
 N         -15.05075161742465      -20.04097869075152       11.30714030363980
 C         -13.82052591287734      -19.89798725141492       10.71331366326479
 N         -13.26757781140101      -18.74503256962144       11.01148253044345
 H         -18.22282945282939      -17.96958222734913       14.56680516563122
 H         -15.45880990923377      -17.80159784575986       14.52262341523959
 H         -16.87822187164986      -19.47691274211106       13.26048158451172
 H         -17.26223879370304      -18.21474965237674       12.10450196701287
 H         -15.68788234252568      -20.83200149866229       11.22314585389433
 H         -13.96695594109322      -17.12686957116821       12.22009873750279
 H         -13.35455882322886      -20.63403008566551       10.06956575527345
 N         -14.93501282660245      -15.44576819966806       13.84277429679328
 C         -14.36735728084733      -14.28639861087053       13.19287234218626
 C         -13.49400878063077      -14.73589576163934       12.05395738166178
 C         -13.60579338497417      -13.37782372619765       14.16435837152466
 O         -12.31603823037124      -14.95998668136490       12.23899396362440
 C         -14.50410355206940      -12.49104143043875       14.95078599092595
 C         -15.56941983093166      -12.84715125831031       15.75677791721390
 N         -14.45521048285163      -11.12484101891434       14.96486078436855
 C         -15.48646794272675      -10.72022361737141       15.77398524165060
 N         -16.15888813252406      -11.74336675018277       16.24866900461324
 H         -14.41719586506969      -15.81351418859289       14.64080357654638
 H         -15.20861497261793      -13.71518687989971       12.77036983713947
 H         -12.99196428785832      -13.98686168457524       14.83406551241232
 H         -12.90482814270795      -12.75982489377231       13.59606802492973
 H         -13.79325600136406      -10.53180564876713       14.46492073629960
 H         -15.91546652662879      -13.85361992618552       15.96137263568878
 H         -15.73044499954678       -9.68898085826699       15.99678526869735
 N         -14.12017485186333      -14.89542774161015       10.84245426537694
 C         -13.37405469139994      -15.28901836846347        9.66084789347118
 C         -12.37319981969239      -14.21385412172208        9.33998716659065
 C         -14.28063571002956      -15.55920617235130        8.47235847147048
 O         -12.76230270709848      -13.11031341612196        9.01891442590081
 H         -15.14424259067390      -14.88187985240834       10.77256875198382
 H         -12.82758368783522      -16.20711483612556        9.92918643537570
 H         -13.70707481704247      -15.88198550394021        7.60324436225240
 H         -15.02127138660391      -16.32533269192325        8.70294476099204
 H         -14.81055952664100      -14.64754833280722        8.19689526321601
 N         -11.04721148699265      -14.54413134386757        9.44667748117025
 C         -10.01063654360017      -13.58687678169702        9.12399774896435
 C         -10.10657573502670      -13.22766702600954        7.65882065125552
 C          -8.62441695624006      -14.10191671083127        9.46762498363467
 O         -10.00909837853376      -14.10811866835520        6.83006060060686
 H         -10.74530791922673      -15.48694687138502        9.69589345130328
 H         -10.23251346448402      -12.68488491595418        9.71661025367696
 H          -8.39635156315878      -14.98468627680548        8.86996225015829
 H          -7.85941209083204      -13.35406335596535        9.25669315389861
 H          -8.55555955090072      -14.37893790168108       10.51961970151409
 N         -10.29404401854331      -11.90390652422809        7.33753236601072
 C         -10.28741704614866      -11.46415089129659        5.95598981435913
 C          -8.91203046131723      -11.72944669324094        5.36104172535206
 C         -10.76908390065299      -10.00853435655305        5.77565204211600
 O          -7.97794802190514      -11.01744752852412        5.64857628418040
 C         -12.22096960342380       -9.87041287097773        6.23451230310351
 C          -9.86770456159638       -9.00364364154872        6.48910050473930
 H         -10.25913999122743      -11.17654376101589        8.05124254776574
 H         -11.00568588223888      -12.11990137927457        5.43573878324356
 H         -10.72417523228796       -9.78929108308016        4.69396491641910
 H         -12.31420740152655      -10.11235663763420        7.29270497917063
 H         -12.59125173020768       -8.85386833608724        6.09234980276313
 H         -12.87879750171966      -10.54679849456805        5.68858607916397
 H          -9.90695029954825       -9.13750354550627        7.56897071543204
 H          -8.82758434359375       -9.11900053779464        6.18354209320761
 H         -10.16736470932041       -7.97676078646215        6.27766013639911
 N          -8.73690447363865      -12.85864826024377        4.55299508447690
 C          -7.47618393589431      -13.45532038931820        4.45893604366806
 H          -9.52176016749260      -13.51141345583913        4.47271107952893
 H          -6.82957484646614      -12.99072884013006        5.20939401282980
 H          -7.53270395825409      -14.51796846130257        4.73316643068338
77
 energy: -14.057484216643 gnorm: 0.017853518534 xtb: 6.6.1 (8d0f1dd)
 C         -17.38871894227613      -16.54657060857660       15.81959212042256
 O         -16.42484175031791      -15.91385361674890       16.17040050108713
 N         -17.44827762445341      -17.32857460945405       14.73120921239321
 C         -16.29095635727248      -17.48987557440746       13.86997213902138
 C         -15.93121733498698      -16.16701498308498       13.24376502908999
 C         -16.49183822587702      -18.56450031745988       12.79725333931792
 O         -16.50859899256342      -15.78472483299421       12.24745891044254
 C         -15.25912813145679      -18.89478595486791       12.02321033119257
 C         -14.13794772604676      -18.11175595097379       11.81418415132710
 N         -15.05066054420401      -20.04098672781823       11.30720176117058
 C         -13.82038381418369      -19.89797330106263       10.71338923476034
 N         -13.26748362507747      -18.74506464010827       11.01162559664737
 H         -18.22394917876358      -17.96851404597426       14.56635285169341
 H         -15.45925720960182      -17.80142312163079       14.52246434960179
 H         -16.87839210765335      -19.47679066172816       13.26036030003622
 H         -17.26238360057836      -18.21460517873849       12.10438270832495
 H         -15.68790292520723      -20.83198003651779       11.22325354797725
 H         -13.96701110737807      -17.12682856396554       12.22005074427011
 H         -13.35447882657128      -20.63406391129489       10.06975944229220
 N         -14.93387361901400      -15.44597314066666       13.84382207442921
 C         -14.36722798348687      -14.28566169060365       13.19317105150362
 C         -13.49402865085466      -14.73601433117481       12.05381420038838
 C         -13.60585457005068      -13.37788756280348       14.16438953093824
 O         -12.31607704612942      -14.95991535040990       12.23910768775964
 C         -14.50419384464143      -12.49105485329975       14.95065664391853
 C         -15.56975279949265      -12.84711017704727       15.75653784806459
 N         -14.45529565097798      -11.12470303491191       14.96474818389829
 C         -15.48677987313234      -10.72030510301084       15.77383281408854
 N         -16.15866034905039      -11.74349095078031       16.24902018830509
 H         -14.41637493198467      -15.81402575957642       14.64111732039904
 H         -15.20858936908071      -13.71542190680331       12.77030013105623
 H         -12.99200247729502      -13.98680840605005       14.83403973224227
 H         -12.90487355751088      -12.75980332312205       13.59601192088155
 H         -13.79335078473235      -10.53175521835204       14.46482760354175
 H         -15.91615738079775      -13.85328477998324       15.96085126478749
 H         -15.73073191098166       -9.68888871512530       15.99646837269911
 N         -14.12088469287059      -14.89691049224347       10.84290780016718
 C         -13.37504223836540      -15.28918909914209        9.66006097149095
 C         -12.37406647553195      -14.21232932701415        9.34087841446838
 C         -14.28041499761716      -15.55862317551057        8.47198360311484
 O         -12.76325823337833      -13.10929931789297        9.01906124540122
 H         -15.14503095232866      -14.88435982651188       10.77376660591213
 H         -12.82702811673662      -16.20637457986351        9.92844316806956
 H         -13.70644142435035      -15.88088041280676        7.60266603357739
 H         -15.02060595489597      -16.32521395767785        8.70203140085835
 H         -14.81074100087941      -14.64729770113141        8.19714537637168
 N         -11.04698710074818      -14.54419016316169        9.44692740542322
 C         -10.00994197526184      -13.58625256102662        9.12453199557381
 C         -10.10633608643635      -13.22750128042334        7.65904797478498
 C          -8.62431128572028      -14.10197019103447        9.46776366315591
 O         -10.00940187510056      -14.10808991378925        6.83022463539147
 H         -10.74532002151447      -15.48695376695678        9.69598314082056
 H         -10.23247014513110      -12.68483953977331        9.71676712502503
 H          -8.39613925423492      -14.98461240662811        8.87029901937253
 H          -7.85929751386056      -13.35410728231571        9.25684163960607
 H          -8.55548003643218      -14.37896969619609       10.51976189968974
 N         -10.29423890958979      -11.90375833763740        7.33784791739473
 C         -10.28813072381359      -11.46538569622168        5.95455024805688
 C          -8.90963311015861      -11.72698629405835        5.36387622314264
 C         -10.76940727005833      -10.00859074273664        5.77549440542149
 O          -7.97896879863181      -11.01508694225263        5.64906976233884
 C         -12.22093771451477       -9.87046268326193        6.23438801277436
 C          -9.86788057352150       -9.00358844641773        6.48911683755385
 H         -10.25909784705518      -11.17643581359288        8.05146849243536
 H         -11.00562852383815      -12.11970160722026        5.43593716791657
 H         -10.72422225389391       -9.78953534598863        4.69386200245399
 H         -12.31423358495744      -10.11247297277691        7.29262378093241
 H         -12.59138037131257       -8.85415866510095        6.09209098498821
 H         -12.87867986826671      -10.54704377856477        5.68845749762153
 H          -9.90716463999170       -9.13743970467515        7.56890622143936
 H          -8.82776893082446       -9.11877772801337        6.18364949545864
 H         -10.16770064412942       -7.97676771513320        6.27745088624551
 N          -8.72080679941151      -12.86951199155694        4.55830672615234
 C          -7.48588261389391      -13.45279419578525        4.45960024923634
 H          -9.52341660883277      -13.50594011924987        4.47246736291551
 H          -6.83148852688037      -12.99358993549954        5.20386547815794
 H          -7.53387948134530      -14.51801565202795        4.72927428911821
77
 energy: -14.057651998264 gnorm: 0.009151079578 xtb: 6.6.1 (8d0f1dd)
 C         -17.38547299870962      -16.54940400723266       15.82086554471608
 O         -16.42494110041319      -15.91264936769319       16.17089222659649
 N         -17.44989666732064      -17.32732551697373       14.73074925186924
 C         -16.29046509600609      -17.49022618441030       13.87019716631459
 C         -15.93150053972722      -16.16691314571275       13.24357449159855
 C         -16.49193120945951      -18.56440401123663       12.79732391412060
 O         -16.50866857458814      -15.78465104671805       12.24747905411603
 C         -15.25921808070390      -18.89476483586895       12.02320119152543
 C         -14.13805054927079      -18.11174714939840       11.81412396887712
 N         -15.05070625198051      -20.04098572754528       11.30720606930562
 C         -13.82047895693553      -19.89795381991084       10.71333820238741
 N         -13.26758990942809      -18.74505371510805       11.01157017350469
 H         -18.22479545243437      -17.96803574396979       14.56537407148761
 H         -15.45907430284606      -17.80143739583536       14.52265938122432
 H         -16.87844003758452      -19.47674599853177       13.26042388780031
 H         -17.26240493415156      -18.21459757390154       12.10444243573911
 H         -15.68799659859290      -20.83194779722935       11.22326880999740
 H         -13.96709482043011      -17.12681820555347       12.22000838885668
 H         -13.35460719845708      -20.63405683082608       10.06970052455327
 N         -14.93376284502131      -15.44611844102433       13.84392419833874
 C         -14.36732647041881      -14.28562971246056       13.19311900207987
 C         -13.49405292408226      -14.73610410914663       12.05375307950898
 C         -13.60591722974022      -13.37791340878346       14.16432429766489
 O         -12.31609411558898      -14.95986538795815       12.23914928084580
 C         -14.50419013963619      -12.49103029443286       14.95065972729261
 C         -15.56979938544842      -12.84705986332887       15.75648407675862
 N         -14.45529873402831      -11.12465112227903       14.96473542462752
 C         -15.48686679592267      -10.72028811714531       15.77376985628376
 N         -16.15854449932978      -11.74349179147123       16.24909421875353
 H         -14.41636662977101      -15.81407270204039       14.64111615811988
 H         -15.20865566196387      -13.71542311835512       12.77025226725038
 H         -12.99202211449634      -13.98677515305642       14.83401062211637
 H         -12.90491233979425      -12.75979367706398       13.59597823685608
 H         -13.79337413145509      -10.53174635823166       14.46478003280487
 H         -15.91642171537935      -13.85318844941922       15.96069392813390
 H         -15.73082016911806       -9.68884697851110       15.99637059630027
 N         -14.12107911565688      -14.89771215987098       10.84316647877996
 C         -13.37502545771779      -15.28913203916168        9.66003880916990
 C         -12.37427281325212      -14.21169906038335        9.34121269677847
 C         -14.27990939089048      -15.55825318568769        8.47191422825584
 O         -12.76363254445958      -13.10890644877934        9.01916644209285
 H         -15.14526265359886      -14.88590573096318       10.77417994235210
 H         -12.82639068724861      -16.20597492549389        9.92832691593949
 H         -13.70570977306107      -15.88006616852253        7.60253475272170
 H         -15.01988035720577      -16.32521295183096        8.70151056055864
 H         -14.81059040574015      -14.64704060181306        8.19736967097394
 N         -11.04710655059646      -14.54420819311282        9.44687490480288
 C         -10.00995375505902      -13.58622605300641        9.12454702645381
 C         -10.10634622593093      -13.22758111184419        7.65895976054826
 C          -8.62442662042539      -14.10201421618043        9.46766518592254
 O         -10.00953071188794      -14.10812594336445        6.83007549711984
 H         -10.74549874629751      -15.48699585452317        9.69579309768878
 H         -10.23257382851300      -12.68484596699373        9.71667746915960
 H          -8.39624308115587      -14.98465443090548        8.87021074381146
 H          -7.85939487083034      -13.35411322991581        9.25675465069181
 H          -8.55556123655742      -14.37899370860011       10.51968109990720
 N         -10.29417676389682      -11.90376239761654        7.33785130374308
 C         -10.28887007324266      -11.46562297669700        5.95418348772401
 C          -8.91143202380385      -11.72665190942642        5.36400654341886
 C         -10.76946496316224      -10.00853457854143        5.77551210765589
 O          -7.98009789598585      -11.01550673756912        5.64693154977557
 C         -12.22087676353412       -9.87036715562217        6.23447801706602
 C          -9.86773605076958       -9.00366587393474        6.48912715332837
 H         -10.25899410932154      -11.17651276061964        8.05148314275738
 H         -11.00602597478314      -12.11978126405493        5.43577150459875
 H         -10.72413343962188       -9.78954254348785        4.69384929611411
 H         -12.31416578275388      -10.11241317301925        7.29269312622007
 H         -12.59130186881993       -8.85405837033077        6.09216388705621
 H         -12.87869823594082      -10.54691572719540        5.68852661930124
 H          -9.90699669631560       -9.13753957493367        7.56890060117206
 H          -8.82765555920462       -9.11893077975779        6.18359149525585
 H         -10.16749803766213       -7.97683432918046        6.27746529970862
 N          -8.71863346822066      -12.87182243213987        4.55951067882572
 C          -7.48387142249673      -13.45320550306235        4.45976185051362
 H          -9.52716692275662      -13.50265079039374        4.47085911593828
 H          -6.83044981382161      -12.99371309359679        5.20531098483769
 H          -7.53260612756574      -14.51858928950232        4.73074854293291
77
 energy: -14.057703855489 gnorm: 0.001702380156 xtb: 6.6.1 (8d0f1dd)
 C         -17.38242787664145      -16.55182273586428       15.82238429274949
 O         -16.42479449655114      -15.91169909205460       16.17137554819822
 N         -17.45155630182385      -17.32619007285238       14.72993746046613
 C         -16.29028288493809      -17.49038145634223       13.87040511851805
 C         -15.93171235617505      -16.16681014110846       13.24345783654195
 C         -16.49195894586496      -18.56434808637411       12.79747389091817
 O         -16.50873460400349      -15.78457644296225       12.24755906996318
 C         -15.25932307629636      -18.89473907305021       12.02318557290079
 C         -14.13817248323385      -18.11173442385585       11.81406726215443
 N         -15.05078291458492      -20.04097825072414       11.30722019807523
 C         -13.82062657866776      -19.89793285329196       10.71327694160968
 N         -13.26773423939858      -18.74503849957116       11.01150097275592
 H         -18.22570617188698      -17.96757160710398       14.56433963614737
 H         -15.45889029066887      -17.80145264523071       14.52284083654714
 H         -16.87845978784736      -19.47671300892844       13.26053182332828
 H         -17.26240286653041      -18.21460381800087       12.10454358869494
 H         -15.68813730820754      -20.83189655694422       11.22326244621248
 H         -13.96717835358650      -17.12681267259420       12.21999028848938
 H         -13.35479512319956      -20.63403867133785       10.06960587205875
 N         -14.93378941773865      -15.44623658619594       13.84390172953726
 C         -14.36743940790708      -14.28566826674430       13.19304652811897
 C         -13.49408423696543      -14.73616301845130       12.05371503989175
 C         -13.60595938091768      -13.37791779357085       14.16427389418045
 O         -12.31611615272827      -14.95984614622024       12.23917233207881
 C         -14.50414119627135      -12.49100414760110       14.95070224397221
 C         -15.56976772483793      -12.84701818509544       15.75649432589061
 N         -14.45526949203336      -11.12461577603799       14.96475295135038
 C         -15.48690045161199      -10.72025235755650       15.77373856869430
 N         -16.15841874103130      -11.74347761689360       16.24916625855440
 H         -14.41643632899186      -15.81403208655045       14.64110275828927
 H         -15.20871158770076      -13.71538039824132       12.77024560271505
 H         -12.99203303843199      -13.98675364269809       14.83398935502315
 H         -12.90493180752187      -12.75978824662521       13.59596336174630
 H         -13.79339525568132      -10.53173097446885       14.46473082564966
 H         -15.91663024808091      -13.85310731688025       15.96058358023270
 H         -15.73083463921668       -9.68880845047791       15.99633622971119
 N         -14.12126632059951      -14.89857501597245       10.84342754129534
 C         -13.37487711395751      -15.28908055827139        9.66014434751542
 C         -12.37436470001835      -14.21114913115080        9.34146948722321
 C         -14.27934768527655      -15.55783969057055        8.47185148223780
 O         -12.76400940447621      -13.10861111024247        9.01917905927920
 H         -15.14548682134258      -14.88770000347594       10.77450574514253
 H         -12.82575853357841      -16.20567876187494        9.92828165778318
 H         -13.70491944153334      -15.87911058088677        7.60241526153400
 H         -15.01910744368969      -16.32520733036254        8.70088325364603
 H         -14.81040277500730      -14.64669795625459        8.19764561187784
 N         -11.04726726900560      -14.54422534359480        9.44679869371688
 C         -10.01005803296385      -13.58627588775167        9.12450822161694
 C         -10.10642064437229      -13.22768732396093        7.65887806263989
 C          -8.62454028382035      -14.10204409605406        9.46758566864212
 O         -10.00963306605955      -14.10817379008195        6.82994666615464
 H         -10.74565945274347      -15.48704052863565        9.69562605742400
 H         -10.23266651125149      -12.68485316791008        9.71660044010365
 H          -8.39635702372786      -14.98470675580957        8.87012424932566
 H          -7.85948737821278      -13.35410591373548        9.25670319330639
 H          -8.55564188296493      -14.37901010039094       10.51961815732695
 N         -10.29405233404345      -11.90378485527099        7.33784153482661
 C         -10.28937035770061      -11.46580261451540        5.95392947847193
 C          -8.91349055339112      -11.72680842072217        5.36381931287249
 C         -10.76948145024525      -10.00851042199774        5.77552749631993
 O          -7.98104904364811      -11.01627098972001        5.64467201559418
 C         -12.22085483875416       -9.87030409524583        6.23454543676485
 C          -9.86763057613661       -9.00373767464973        6.48911585731645
 H         -10.25897340639857      -11.17656554250448        8.05146901687496
 H         -11.00636410388723      -12.11992624391622        5.43557555533682
 H         -10.72409908760723       -9.78952802146853        4.69383994287387
 H         -12.31413887337086      -10.11236379965888        7.29274291085458
 H         -12.59125793960956       -8.85397103443253        6.09222702333526
 H         -12.87875803367064      -10.54680859284409        5.68858071734626
 H          -9.90688100094982       -9.13762424517023        7.56888282462441
 H          -8.82757742269961       -9.11908181960315        6.18351487660061
 H         -10.16734396399970       -7.97689087435648        6.27748245928026