      -----------------------------------------------------------      
     |                   =====================                   |     
     |                           x T B                           |     
     |                   =====================                   |     
     |                         S. Grimme                         |     
     |          Mulliken Center for Theoretical Chemistry        |     
     |                    University of Bonn                     |     
      -----------------------------------------------------------      

   * xtb version 6.6.1 (8d0f1dd) compiled by 'conda@1efc2f54142f' on 2023-08-01

   xtb is free software: you can redistribute it and/or modify it under
   the terms of the GNU Lesser General Public License as published by
   the Free Software Foundation, either version 3 of the License, or
   (at your option) any later version.
   
   xtb is distributed in the hope that it will be useful,
   but WITHOUT ANY WARRANTY; without even the implied warranty of
   MERCHANTABILITY or FITNESS FOR A PARTICULAR PURPOSE.  See the
   GNU Lesser General Public License for more details.
   
   Cite this work as:
   * C. Bannwarth, E. Caldeweyher, S. Ehlert, A. Hansen, P. Pracht,
     J. Seibert, S. Spicher, S. Grimme, WIREs Comput. Mol. Sci., 2020, 11,
     e01493. DOI: 10.1002/wcms.1493
   
   for GFN2-xTB:
   * C. Bannwarth, S. Ehlert and S. Grimme., J. Chem. Theory Comput., 2019,
     15, 1652-1671. DOI: 10.1021/acs.jctc.8b01176
   for GFN1-xTB:
   * S. Grimme, C. Bannwarth, P. Shushkov, J. Chem. Theory Comput., 2017,
     13, 1989-2009. DOI: 10.1021/acs.jctc.7b00118
   for GFN0-xTB:
   * P. Pracht, E. Caldeweyher, S. Ehlert, S. Grimme, ChemRxiv, 2019, preprint.
     DOI: 10.26434/chemrxiv.8326202.v1
   for GFN-FF:
   * S. Spicher and S. Grimme, Angew. Chem. Int. Ed., 2020, 59, 15665-15673.
     DOI: 10.1002/anie.202004239
   
   for ALPB and GBSA implicit solvation:
   * S. Ehlert, M. Stahn, S. Spicher, S. Grimme, J. Chem. Theory Comput.,
     2021, 17, 4250-4261. DOI: 10.1021/acs.jctc.1c00471
   
   for DFT-D4:
   * E. Caldeweyher, C. Bannwarth and S. Grimme, J. Chem. Phys., 2017,
     147, 034112. DOI: 10.1063/1.4993215
   * E. Caldeweyher, S. Ehlert, A. Hansen, H. Neugebauer, S. Spicher,
     C. Bannwarth and S. Grimme, J. Chem. Phys., 2019, 150, 154122.
     DOI: 10.1063/1.5090222
   * E. Caldeweyher, J.-M. Mewes, S. Ehlert and S. Grimme, Phys. Chem. Chem. Phys.
     2020, 22, 8499-8512. DOI: 10.1039/D0CP00502A
   
   for sTDA-xTB:
   * S. Grimme and C. Bannwarth, J. Chem. Phys., 2016, 145, 054103.
     DOI: 10.1063/1.4959605
   
   in the mass-spec context:
   * V. Asgeirsson, C. Bauer and S. Grimme, Chem. Sci., 2017, 8, 4879.
     DOI: 10.1039/c7sc00601b
   * J. Koopman and S. Grimme, ACS Omega 2019, 4, 12, 15120-15133.
     DOI: 10.1021/acsomega.9b02011
   
   for metadynamics refer to:
   * S. Grimme, J. Chem. Theory Comput., 2019, 155, 2847-2862
     DOI: 10.1021/acs.jctc.9b00143
   
   for SPH calculations refer to:
   * S. Spicher and S. Grimme, J. Chem. Theory Comput., 2021, 17, 1701-1714
     DOI: 10.1021/acs.jctc.0c01306
   
   with help from (in alphabetical order)
   P. Atkinson, C. Bannwarth, F. Bohle, G. Brandenburg, E. Caldeweyher
   M. Checinski, S. Dohm, S. Ehlert, S. Ehrlich, I. Gerasimov, C. Hölzer
   A. Katbashev, J. Koopman, C. Lavigne, S. Lehtola, F. März, M. Müller,
   F. Musil, H. Neugebauer, J. Pisarek, C. Plett, P. Pracht, F. Pultar,
   J. Seibert, P. Shushkov, S. Spicher, M. Stahn, M. Steiner, T. Strunk,
   J. Stückrath, T. Rose, and J. Unsleber
   
 * started run on 2025/05/27 at 09:37:58.809     

           -------------------------------------------------
          |                Calculation Setup                |
           -------------------------------------------------

          program call               : xtb substructure_79.pdb --gfnff --input xtb_settings.inp --opt vtight --alpb water --verbose
          coordinate file            : substructure_79.pdb
          xtbhome directory          : /home/dargen3
          path for xtb               : /home/dargen3
          xcontrol input file        : xtb_settings.inp
          omp threads                :                     1

$$$$$$$$$$$$$$$$$$$$$$$$$$$$$$$$$$$$$$$$$$$$$$$$$$$$$$$$$$$$$$$$$$$$$$$$
 CONSTRAINTS & SCANS: DEBUG SECTION
$$$$$$$$$$$$$$$$$$$$$$$$$$$$$$$$$$$$$$$$$$$$$$$$$$$$$$$$$$$$$$$$$$$$$$$$
   ID    Z sym.   atoms
    1    6  C     1, 4, 5, 11, 12, 18, 19, 25, 26, 32
    2    8  O     2, 6, 13, 20, 27
    3    7  N     3, 10, 17, 24, 31
    4    1  H     7-9, 14-16, 21-23, 28-30, 33-35
> constrain
-> atoms: 1, 2, 3, 4, 5, 6, 7, 8, 9, 10, 11, 12, 13, 14, 15, 16, 18, 24, 25, 26, 27, 28, 29, 30, 31, 32, 33, 34, 35
--> 1: 1
--> 2: 2
--> 3: 3
--> 4: 4
--> 5: 5
--> 6: 6
--> 7: 7
--> 8: 8
--> 9: 9
--> 10: 10
--> 11: 11
--> 12: 12
--> 13: 13
--> 14: 14
--> 15: 15
--> 16: 16
--> 17: 18
--> 18: 24
--> 19: 25
--> 20: 26
--> 21: 27
--> 22: 28
--> 23: 29
--> 24: 30
--> 25: 31
--> 26: 32
--> 27: 33
--> 28: 34
--> 29: 35
-> force constant=1.0
$$$$$$$$$$$$$$$$$$$$$$$$$$$$$$$$$$$$$$$$$$$$$$$$$$$$$$$$$$$$$$$$$$$$$$$$
           -------------------------------------------------
          |                   Constraints                   |
           -------------------------------------------------

 * 29 constrained atom positions
   positions refering to input geometry

     #   Z                                   position/Å      displ./Å
     1   6 C     -0.8030001    -9.1650009    -3.0040003     0.0000000
     2   8 O     -1.8900002    -8.7220008    -2.6980003     0.0000000
     3   7 N     -0.0040000    -8.4910008    -3.9110004     0.0000000
     4   6 C      1.3240001    -8.8870008    -4.3620004     0.0000000
     5   6 C      1.5360001    -8.5140008    -5.8130005     0.0000000
     6   8 O      0.6130001    -8.6020008    -6.5940006     0.0000000
     7   1 H     -0.3780000    -7.6740007    -4.3860004     0.0000000
     8   1 H      2.0770002    -8.4520008    -3.7290003     0.0000000
     9   1 H      1.4090001    -9.9880009    -4.2970004     0.0000000
    10   7 N      2.7870003    -8.0960008    -6.2170006     0.0000000
    11   6 C      3.0050003    -7.6070007    -7.5660007     0.0000000
    12   6 C      3.1490003    -6.1010006    -7.5740007     0.0000000
    13   8 O      2.2300002    -5.4590005    -7.1070007     0.0000000
    14   1 H      3.5110003    -7.8560007    -5.5390005     0.0000000
    15   1 H      3.8620004    -8.1090008    -8.0080007     0.0000000
    16   1 H      2.1230002    -7.8740007    -8.1550008     0.0000000
    18   6 C      5.4280005    -5.9890006    -8.7440008     0.0000000
    24   7 N      6.2880006    -4.7270004   -10.7120010     0.0000000
    25   6 C      6.1780006    -4.2520004   -12.0880011     0.0000000
    26   6 C      5.8170005    -2.7840003   -12.1050011     0.0000000
    27   8 O      4.8620005    -2.4360002   -11.4420011     0.0000000
    28   1 H      6.7950006    -4.1060004   -10.0810009     0.0000000
    29   1 H      7.1210007    -4.4390004   -12.6060012     0.0000000
    30   1 H      5.3950005    -4.8260004   -12.5730012     0.0000000
    31   7 N      6.5130006    -1.8410002   -12.8450012     0.0000000
    32   6 C      7.7600007    -2.0220002   -13.5740013     0.0000000
    33   1 H      6.2210006    -0.8620001   -12.7990012     0.0000000
    34   1 H      8.5380008    -2.3470002   -12.8720012     0.0000000
    35   1 H      7.6210007    -2.8270003   -14.3140013     0.0000000

     applying 406 atom pairwise harmonic potentials
       applied force constant per pair:     0.0357143
     effective force constant per atom:     1.0000000
         constraining energy/grad norm:     0.0000000     0.0000000

     total constraint energy/grad norm:     0.0000000     0.0000000

          charge from pdb residues: 0

          entering GFN-FF setup routine... 35

          ==================== Thresholds ====================
          CN  :   150.00000
          rep :   500.00000
          disp:  2500.00000
          HB1 :   250.00000
          HB2 :   450.00000

          Pauling EN used:
          Z : 1  EN :  2.20
          Z : 6  EN :  2.55
          Z : 7  EN :  3.04
          Z : 8  EN :  3.44
          electric field strengths (au): 0.000

           ------------------------------------------------- 
          |           Force Field Initialization            |
           ------------------------------------------------- 

          distances ...
          ----------------------------------------
          generating topology and atomic info file ...
          pair mat ...
          computing topology distances matrix with Floyd-Warshall algo ...
          making topology EEQ charges ...
          #fragments for EEQ constrain from pdb file: 6
          ----------------------------------------
          generating topology and atomic info file ...
          pair mat ...
          computing topology distances matrix with Floyd-Warshall algo ...
          making topology EEQ charges ...
          #fragments for EEQ constrain from pdb file: 6
          rings ...
          # BATM   270
          # H in HB   15
          doing iterative Hueckel for 5 subsystem(s) ...
          iterative Hueckel run to get P ...
Hueckel system :  1 charge :   0 ndim/Nel :    3    3   eps(HOMO/LUMO)   -0.953512   -0.953512
Hueckel system :  2 charge :   0 ndim/Nel :    3    4   eps(HOMO/LUMO)   -0.911362   -0.911362
Hueckel system :  3 charge :   0 ndim/Nel :    3    4   eps(HOMO/LUMO)   -0.911922   -0.911922
Hueckel system :  4 charge :   0 ndim/Nel :    3    4   eps(HOMO/LUMO)   -0.910012   -0.910012
Hueckel system :  5 charge :   0 ndim/Nel :    4    5   eps(HOMO/LUMO)    1.305315    1.305315
WARNING: probably wrong pi occupation for system 5. Second attempt with Nel=Nel-1!
 at,nb,topo%hyb,Npiel:          26  C             3           2           1
 at,nb,topo%hyb,Npiel:          27  O             1           2           1
 at,nb,topo%hyb,Npiel:          31  N             3           3           2
 at,nb,topo%hyb,Npiel:          32  C             3           2           1

          eigenvalues
 #    :           1          2          3          4
 occ. :        2.000      1.987      0.013      0.000
 eps  :        -4.349     -2.183      1.305      3.389
Hueckel system :  5 charge :   0 ndim/Nel :    4    4   eps(HOMO/LUMO)   -2.182828    1.305315

  atom   neighbors  erfCN metchar sp-hybrid imet pi  qest     coordinates
    1   C      2    1.93   0.00        -2    0    1   0.120   -1.517450  -17.319340   -5.676737
    2   O      1    0.98   0.00         2    0    1  -0.120   -3.571582  -16.482191   -5.098481
    3   N      3    2.79   0.00        -3    0    1  -0.166   -0.007559  -16.045665   -7.390719
    4   C      4    3.49   0.00         3    0    0   0.005    2.501997  -16.793996   -8.242985
    5   C      3    2.80   0.00         2    0    1   0.174    2.902619  -16.089128  -10.984978
    6   O      1    0.98   0.00         2    0    1  -0.352    1.158402  -16.255424  -12.460854
    7   H      1    0.98   0.00         0    0    0   0.153   -0.714316  -14.501758   -8.288339
    8   H      1    0.97   0.00         0    0    0   0.093    3.924961  -15.971965   -7.046789
    9   H      1    0.97   0.01         0    0    0   0.093    2.662624  -18.874585   -8.120153
   10   N      3    2.79   0.00        -3    0    1  -0.168    5.266667  -15.299223  -11.748427
   11   C      4    3.49   0.00         3    0    0   0.006    5.678627  -14.375147  -14.297668
   12   C      3    2.79   0.00         2    0    1   0.175    5.950748  -11.529219  -14.312786
   13   O      1    0.98   0.00         2    0    1  -0.352    4.214089  -10.316015  -13.430284
   14   H      1    0.98   0.00         0    0    0   0.154    6.634828  -14.845688  -10.467193
   15   H      1    0.97   0.00         0    0    0   0.092    7.298122  -15.323789  -15.132927
   16   H      1    0.97   0.00         0    0    0   0.092    4.011889  -14.879704  -15.410717
   17   N      3    2.79   0.00        -3    0    1  -0.167    8.038895  -10.257433  -15.261428
   18   C      4    3.49   0.00         3    0    0   0.005   10.257433  -11.317570  -16.523765
   19   C      3    2.79   0.00         2    0    1   0.178   10.236646  -10.735534  -19.316780
   20   O      1    0.98   0.00         2    0    1  -0.353    8.768329  -11.848583  -20.675494
   21   H      1    0.98   0.00         0    0    0   0.151    7.934960   -8.343141  -15.389930
   22   H      1    0.97   0.00         0    0    0   0.093   11.963856  -10.586246  -15.646932
   23   H      1    0.97   0.00         0    0    0   0.093   10.304677  -13.373592  -16.279991
   24   N      3    2.79   0.00        -3    0    1  -0.170   11.882598   -8.932735  -20.242746
   25   C      4    3.49   0.00         3    0    0   0.006   11.674728   -8.035115  -22.843009
   26   C      3    2.79   0.00         2    0    1   0.195   10.992537   -5.260998  -22.875135
   27   O      1    0.98   0.00         2    0    1  -0.357    9.187848   -4.603373  -21.622246
   28   H      1    0.98   0.00         0    0    0   0.147   12.840689   -7.759215  -19.050329
   29   H      1    0.97   0.00         0    0    0   0.090   13.456740   -8.388494  -23.821888
   30   H      1    0.97   0.00         0    0    0   0.090   10.195072   -9.119818  -23.759527
   31   N      3    2.79   0.00         3    0    1  -0.226   12.307786   -3.478986  -24.273532
   32   C      3    2.78   0.00         2    0    1  -0.008   14.664275   -3.821026  -25.651142
   33   H      1    0.98   0.00         0    0    0   0.123   11.755986   -1.628944  -24.186605
   34   H      1    0.97   0.00         0    0    0   0.055   16.134482   -4.435187  -24.324555
   35   H      1    0.97   0.01         0    0    0   0.055   14.401603   -5.342256  -27.049540

molecular fragment  # atoms  topo charge
       1             2            -0.000
       2             7            -0.000
       3             7            -0.000
       4             7             0.000
       5             7             0.000
       6             5            -0.000


          #atoms :   35
          #bonds :   34

 bond atoms        type  in ring    R      R0    piBO    fqq  kbond(tot)  alp
 O  C     2    1      2    0     1.213   0.995   0.799   1.047  -0.252   0.584
 N  C     3    1      2    0     1.384   1.214   0.504   1.047  -0.235   0.524
 C  N     4    3      1    0     1.457   1.325 -99.000   1.033  -0.151   0.496
 C  C     5    4      1    0     1.513   1.332 -99.000   1.013  -0.162   0.475
 O  C     6    5      2    0     1.212   1.031   0.856   1.047  -0.262   0.584
 H  N     7    3      1    0     1.016   0.890 -99.000   1.047  -0.176   0.551
 H  C     8    4      1    0     1.076   0.976 -99.000   1.018  -0.164   0.482
 H  C     9    4      1    0     1.106   0.976 -99.000   1.018  -0.164   0.482
 N  C    10    5      2    0     1.379   1.263   0.503   1.047  -0.234   0.524
 C  N    11   10      1    0     1.451   1.326 -99.000   1.036  -0.151   0.496
 C  C    12   11      1    0     1.513   1.332 -99.000   1.011  -0.162   0.475
 O  C    13   12      2    0     1.214   1.031   0.856   1.047  -0.262   0.584
 H  N    14   10      1    0     1.020   0.890 -99.000   1.047  -0.176   0.551
 H  C    15   11      1    0     1.087   0.977 -99.000   1.016  -0.164   0.482
 H  C    16   11      1    0     1.094   0.976 -99.000   1.016  -0.164   0.482
 N  C    17   12      2    0     1.388   1.263   0.503   1.047  -0.234   0.524
 C  N    18   17      1    0     1.463   1.325 -99.000   1.033  -0.151   0.496
 C  C    19   18      1    0     1.510   1.332 -99.000   1.014  -0.162   0.475
 O  C    20   19      2    0     1.211   1.031   0.856   1.047  -0.262   0.584
 H  N    21   17      1    0     1.017   0.890 -99.000   1.047  -0.176   0.551
 H  C    22   18      1    0     1.086   0.976 -99.000   1.018  -0.164   0.482
 H  C    23   18      1    0     1.096   0.976 -99.000   1.018  -0.164   0.482
 N  C    24   19      2    0     1.382   1.263   0.504   1.047  -0.234   0.524
 C  N    25   24      1    0     1.460   1.326 -99.000   1.034  -0.151   0.496
 C  C    26   25      1    0     1.512   1.332 -99.000   1.011  -0.162   0.475
 O  C    27   26      2    0     1.214   1.018   0.930   1.047  -0.274   0.584
 H  N    28   24      1    0     1.020   0.890 -99.000   1.047  -0.176   0.551
 H  C    29   25      1    0     1.092   0.976 -99.000   1.018  -0.164   0.482
 H  C    30   25      1    0     1.085   0.977 -99.000   1.018  -0.164   0.482
 N  C    31   26      2    0     1.386   1.291   0.346   1.047  -0.203   0.524
 C  N    32   31      2    0     1.456   1.189   0.906   1.006  -0.302   0.524
 H  N    33   31      1    0     1.023   0.890 -99.000   1.047  -0.176   0.551
 H  C    34   32      1    0     1.097   0.949 -99.000   1.029  -0.179   0.490
 H  C    35   32      1    0     1.102   0.949 -99.000   1.029  -0.179   0.490
          #angl  :   55

 angle atoms        phi0    phi      FC  pi rings
    1    3    2   145.000 120.319   0.082 F   0
    3    4    1   115.000 126.625   0.411 F   0
    3    7    1   115.000 119.034   0.335 F   0
    3    7    4   104.000 114.150   0.182 F   0
    4    5    3   109.500 110.944   0.307 F   0
    4    8    3   109.500 110.238   0.253 F   0
    4    8    5   109.500 111.504   0.251 F   0
    4    9    3   109.500 108.802   0.253 F   0
    4    9    5   109.500 106.914   0.251 F   0
    4    9    8   108.600 108.310   0.209 F   0
    5    6    4   120.000 119.553   0.178 F   0
    5   10    4   120.000 118.856   0.243 F   0
    5   10    6   120.000 121.587   0.176 F   0
   10   11    5   115.000 120.698   0.409 F   0
   10   14    5   115.000 121.336   0.333 F   0
   10   14   11   104.000 115.576   0.182 F   0
   11   12   10   109.500 110.769   0.307 F   0
   11   15   10   109.500 109.922   0.253 F   0
   11   15   12   109.500 112.488   0.252 F   0
   11   16   10   109.500 107.288   0.253 F   0
   11   16   12   109.500 108.477   0.252 F   0
   11   16   15   108.600 107.701   0.209 F   0
   12   13   11   120.000 116.884   0.178 F   0
   12   17   11   120.000 124.086   0.243 F   0
   12   17   13   120.000 119.031   0.176 F   0
   17   18   12   115.000 128.193   0.409 F   0
   17   21   12   115.000 117.663   0.333 F   0
   17   21   18   104.000 113.267   0.182 F   0
   18   19   17   109.500 111.285   0.307 F   0
   18   22   17   109.500 109.600   0.253 F   0
   18   22   19   109.500 110.577   0.251 F   0
   18   23   17   109.500 110.203   0.253 F   0
   18   23   19   109.500 108.538   0.251 F   0
   18   23   22   108.600 106.523   0.209 F   0
   19   20   18   120.000 119.110   0.178 F   0
   19   24   18   120.000 118.912   0.242 F   0
   19   24   20   120.000 121.976   0.176 F   0
   24   25   19   115.000 120.761   0.409 F   0
   24   28   19   115.000 120.946   0.333 F   0
   24   28   25   104.000 114.984   0.182 F   0
   25   26   24   109.500 110.154   0.307 F   0
   25   29   24   109.500 109.046   0.253 F   0
   25   29   26   109.500 111.539   0.251 F   0
   25   30   24   109.500 107.668   0.253 F   0
   25   30   26   109.500 109.650   0.251 F   0
   25   30   29   108.600 108.691   0.209 F   0
   26   27   25   120.000 117.401   0.177 F   0
   26   31   25   120.000 123.141   0.241 F   0
   26   31   27   120.000 119.454   0.174 F   0
   31   32   26   113.000 127.798   0.042 F   0
   31   33   26   113.000 118.940   0.211 F   0
   31   33   32   113.000 112.714   0.105 F   0
   32   34   31   120.000 108.896   0.204 F   0
   32   35   31   120.000 108.601   0.204 F   0
   32   35   34   120.000 107.617   0.167 F   0
 torsion atoms        nrot   rings    phi0    phi      FC
    3    1    4    2   2      0     180.000 179.194   0.765
    3    1    7    2   2      0     180.000   6.143   1.135
    4    3    5    1   3      0     180.000 145.292   0.024
    4    3    5    7   3      0     180.000  29.594   0.032
    4    3    8    1   3      0     180.000  90.690   0.034
    4    3    8    7   3      0     180.000  94.423   0.045
    4    3    9    1   3      0     180.000  27.944   0.034
    4    3    9    7   3      0     180.000 146.942   0.045
    5    4    6    3   3      0     180.000  36.743   0.066
    5    4    6    8   3      0     180.000 160.036   0.115
    5    4    6    9   3      0     180.000  81.752   0.115
    5    4   10    3   3      0     180.000 144.050   0.041
    5    4   10    8   3      0     180.000  20.758   0.072
    5    4   10    9   3      0     180.000  97.454   0.072
   10    5   11    4   2      0     180.000 174.051   0.615
   10    5   11    6   2      0     180.000   6.759   0.833
   10    5   14    4   2      0     180.000  12.370   0.912
   10    5   14    6   2      0     180.000 168.440   1.236
   11   10   12    5   3      0     180.000 105.028   0.022
   11   10   12   14   3      0     180.000  57.657   0.032
   11   10   15    5   3      0     180.000 130.044   0.032
   11   10   15   14   3      0     180.000  67.271   0.045
   11   10   16    5   3      0     180.000  13.203   0.032
   11   10   16   14   3      0     180.000 175.888   0.045
   12   11   13   10   3      0     180.000  57.073   0.066
   12   11   13   15   3      0     180.000 179.464   0.115
   12   11   13   16   3      0     180.000  60.433   0.115
   12   11   17   10   3      0     180.000 122.887   0.041
   12   11   17   15   3      0     180.000   0.576   0.072
   12   11   17   16   3      0     180.000 119.608   0.072
   17   12   18   11   2      0     180.000   3.731   0.614
   17   12   18   13   2      0     180.000 176.310   0.832
   17   12   21   11   2      0     180.000 172.214   0.911
   17   12   21   13   2      0     180.000   7.827   1.235
   18   17   19   12   3      0     180.000 107.711   0.022
   18   17   19   21   3      0     180.000  61.191   0.032
   18   17   22   12   3      0     180.000 129.666   0.032
   18   17   22   21   3      0     180.000  61.432   0.045
   18   17   23   12   3      0     180.000  12.748   0.032
   18   17   23   21   3      0     180.000 178.349   0.045
   19   18   20   17   3      0     180.000  73.305   0.066
   19   18   20   22   3      0     180.000 164.637   0.115
   19   18   20   23   3      0     180.000  48.131   0.115
   19   18   24   17   3      0     180.000 106.207   0.041
   19   18   24   22   3      0     180.000  15.852   0.072
   19   18   24   23   3      0     180.000 132.357   0.072
   24   19   25   18   2      0     180.000 170.730   0.620
   24   19   25   20   2      0     180.000   8.767   0.840
   24   19   28   18   2      0     180.000  12.299   0.920
   24   19   28   20   2      0     180.000 167.199   1.247
   25   24   26   19   3      0     180.000 115.533   0.022
   25   24   26   28   3      0     180.000  44.112   0.032
   25   24   29   19   3      0     180.000 121.754   0.032
   25   24   29   28   3      0     180.000  78.601   0.045
   25   24   30   19   3      0     180.000   3.994   0.032
   25   24   30   28   3      0     180.000 163.639   0.045
   26   25   27   24   3      0     180.000  51.317   0.066
   26   25   27   29   3      0     180.000 172.552   0.115
   26   25   27   30   3      0     180.000  66.999   0.115
   26   25   31   24   3      0     180.000 129.348   0.041
   26   25   31   29   3      0     180.000   8.113   0.072
   26   25   31   30   3      0     180.000 112.336   0.072
   31   26   32   25   2      0     180.000   8.294   0.343
   31   26   32   27   2      0     180.000 172.384   0.465
   31   26   33   25   2      0     180.000 179.152   0.489
   31   26   33   27   2      0     180.000   1.526   0.663
   32   31   34   26   2      0     180.000  58.955   1.385
   32   31   34   33   2      0     180.000 112.375   1.974
   32   31   35   26   2      0     180.000  57.963   1.385
   32   31   35   33   2      0     180.000 130.706   1.974
 out-of-plane atoms          phi0    phi      FC
    3    7    1    4          0.000   4.281   0.133
    5    6   10    4          0.000  -0.710  23.920
   10   14    5   11          0.000  15.680   0.125
   12   13   17   11          0.000   0.034  23.974
   17   21   12   18          0.000   9.028   0.130
   19   20   24   18          0.000   0.440  24.122
   24   28   19   25          0.000  18.415   0.116
   26   27   31   25          0.000  -0.568  28.543
   31   33   26   32          0.000  -7.212  -0.052
   32   34   35   31          0.000  57.021   0.552
          #tors  :   80
          #nmol  :   6
          #optfrag :   6

 GFN-FF setup done.

           ------------------------------------------------- 
          |                   G F N - F F                   |
          |          A general generic force-field          |
          |                  Version 1.0.3                  | 
           ------------------------------------------------- 
      * Solvation model:               ALPB
        Solvent                        water
        Parameter file                 internal GFN-FF/ALPB
        Dielectric constant                8.0200E+01
        Reference state                gsolv [1 M gas/solution]
        Free energy shift                  3.6494E-04 Eh       2.2900E-01 kcal/mol
        Temperature                        2.9815E+02 K
        Density                            1.0000E+00 kg/L
        Solvent mass                       1.8000E+01 g/mol
        Interaction kernel             P16
        Born radius scaling (c1)           1.5056E+00
        Born radii integrator          GBOBC
        Born offset                        0.0000E+00 a0       0.0000E+00 AA
        H-bond correction              true
        Ion screening                  false
        Surface tension                    1.0000E-05 Eh       1.5569E+01 dyn/cm
        Grid points                               230 per atom
          Number of HB bonds (bound hydrogen)     333
          Number of HB bonds (unbound hydrogen)   43
          Number of XB bonds                      0

 E+G (total)                   0 d,  0 h,  0 min,  0.001 sec
 distance/D3 list               ...        0 min,  0.000 sec (  0.286%)
 non bonded repulsion           ...        0 min,  0.000 sec (  1.939%)
 dCN                            ...        0 min,  0.000 sec (  3.183%)
 EEQ energy and q               ...        0 min,  0.000 sec (  5.053%)
 D3                             ...        0 min,  0.000 sec (  7.731%)
 EEQ gradient                   ...        0 min,  0.000 sec (  4.255%)
 bonds                          ...        0 min,  0.000 sec (  0.915%)
 bend and torsion               ...        0 min,  0.000 sec (  3.914%)
 bonded ATM                     ...        0 min,  0.000 sec (  2.352%)
 HB/XB (incl list setup)        ...        0 min,  0.000 sec (  9.064%)
 GBSA                           ...        0 min,  0.000 sec ( 63.404%)

         :::::::::::::::::::::::::::::::::::::::::::::::::::::
         ::                     SUMMARY                     ::
         :::::::::::::::::::::::::::::::::::::::::::::::::::::
         :: total energy              -6.222700685155 Eh    ::
         :: total w/o Gsolv           -6.183684350976 Eh    ::
         :: total w/o Gsasa/hb        -6.218009042163 Eh    ::
         :: gradient norm              0.167170945737 Eh/a0 ::
         ::.................................................::
         :: bond energy               -6.271564941453 Eh    ::
         :: angle energy               0.030358856954 Eh    ::
         :: torsion energy             0.020293276260 Eh    ::
         :: repulsion energy           0.375315909086 Eh    ::
         :: electrostat energy        -0.308483322973 Eh    ::
         :: dispersion energy         -0.022706156813 Eh    ::
         :: HB energy                 -0.000523142757 Eh    ::
         :: XB energy                  0.000000000000 Eh    ::
         :: bonded atm energy         -0.006374829280 Eh    ::
         :: external energy            0.000000000000 Eh    ::
         :: -> Gsolv                  -0.039016334179 Eh    ::
         ::    -> Gborn               -0.034324691187 Eh    ::
         ::    -> Gsasa                0.010078948976 Eh    ::
         ::    -> Ghb                 -0.015135531222 Eh    ::
         ::    -> Gshift               0.000364939255 Eh    ::
         :: add. restraining           0.000000000000 Eh    ::
         :: total charge               0.000000000000 e     ::
         ::.................................................::
         :: atomisation energy         0.000000000000 Eh    ::
         :::::::::::::::::::::::::::::::::::::::::::::::::::::

      ----------------------------------------------------------- 
     |                   =====================                   |
     |                        A N C O P T                        |
     |                   =====================                   |
     |               Approximate Normal Coordinate               |
     |                Rational Function Optimizer                |
      ----------------------------------------------------------- 

          ...................................................
          :                      SETUP                      :
          :.................................................:
          :   optimization level         verytight          :
          :   max. optcycles                    10          :
          :   ANC micro-cycles                  10          :
          :   degrees of freedom                99          :
          :.................................................:
          :   RF solver                   davidson          :
          :   write xtbopt.log                true          :
          :   linear?                        false          :
          :   energy convergence         0.1000000E-06 Eh   :
          :   grad. convergence          0.2000000E-03 Eh/α :
          :   maxmium RF displ.          1.0000000          :
          :   Hlow (freq-cutoff)         0.1000000E-01      :
          :   Hmax (freq-cutoff)         5.0000000          :
          :   S6 in model hess.         20.0000000          :
          ...................................................

generating ANC from model Hessian ...
Using GFN-FF Lindh-Hessian
 Shifting diagonal of input Hessian by    0.0000000000000000     
 Lowest  eigenvalues of input Hessian
    0.000000    0.000000    0.000000    0.000000    0.000000    0.000000
    0.019792    0.021165    0.024333    0.029889    0.051959    0.054590
    0.066160    0.076829    0.083823    0.090263    0.102241    0.116803
 Highest eigenvalues
    3.348724    3.724219    3.745607    4.053464    4.153755    4.208505


........................................................................
.............................. CYCLE    1 ..............................
........................................................................
     iter. time                 ...        0 min,  0.001 sec
 * total energy  :    -6.2227007 Eh     change        0.0000000E+00 Eh
   gradient norm :     0.1671709 Eh/α   predicted     0.0000000E+00 (    NaN%)
   displ. norm   :     0.0839880 α      lambda       -0.1081727E-01
   maximum displ.:     0.0353225 α      in ANC's #42, #89, #5, ...

........................................................................
.............................. CYCLE    2 ..............................
........................................................................
     iter. time                 ...        0 min,  0.001 sec
 * total energy  :    -6.2299529 Eh     change       -0.7252236E-02 Eh
   gradient norm :     0.0619152 Eh/α   predicted    -0.5469775E-02 ( -24.58%)
   displ. norm   :     0.0564312 α      lambda       -0.2686083E-02
   maximum displ.:     0.0150694 α      in ANC's #54, #60, #89, ...

........................................................................
.............................. CYCLE    3 ..............................
........................................................................
     iter. time                 ...        0 min,  0.001 sec
 * total energy  :    -6.2314688 Eh     change       -0.1515876E-02 Eh
   gradient norm :     0.0175717 Eh/α   predicted    -0.1347336E-02 ( -11.12%)
   displ. norm   :     0.0244108 α      lambda       -0.2478296E-03
   maximum displ.:     0.0094357 α      in ANC's #36, #18, #29, ...

........................................................................
.............................. CYCLE    4 ..............................
........................................................................
     iter. time                 ...        0 min,  0.001 sec
 * total energy  :    -6.2316494 Eh     change       -0.1806144E-03 Eh
   gradient norm :     0.0096958 Eh/α   predicted    -0.1295435E-03 ( -28.28%)
   displ. norm   :     0.0228080 α      lambda       -0.1166191E-03
   maximum displ.:     0.0092374 α      in ANC's #36, #18, #29, ...

........................................................................
.............................. CYCLE    5 ..............................
........................................................................
     iter. time                 ...        0 min,  0.000 sec
 * total energy  :    -6.2317200 Eh     change       -0.7062110E-04 Eh
   gradient norm :     0.0037511 Eh/α   predicted    -0.5835258E-04 ( -17.37%)
   displ. norm   :     0.0113367 α      lambda       -0.2317578E-04
   maximum displ.:     0.0052541 α      in ANC's #29, #36, #18, ...

........................................................................
.............................. CYCLE    6 ..............................
........................................................................
     iter. time                 ...        0 min,  0.000 sec
 * total energy  :    -6.2317373 Eh     change       -0.1726996E-04 Eh
   gradient norm :     0.0029089 Eh/α   predicted    -0.1178177E-04 ( -31.78%)
   displ. norm   :     0.0132630 α      lambda       -0.1878084E-04
   maximum displ.:     0.0062417 α      in ANC's #29, #25, #36, ...

........................................................................
.............................. CYCLE    7 ..............................
........................................................................
     iter. time                 ...        0 min,  0.000 sec
 * total energy  :    -6.2317494 Eh     change       -0.1212010E-04 Eh
   gradient norm :     0.0024174 Eh/α   predicted    -0.9401645E-05 ( -22.43%)
   displ. norm   :     0.0069096 α      lambda       -0.5824403E-05
   maximum displ.:     0.0029969 α      in ANC's #29, #25, #22, ...

........................................................................
.............................. CYCLE    8 ..............................
........................................................................
     iter. time                 ...        0 min,  0.000 sec
 * total energy  :    -6.2317534 Eh     change       -0.4012417E-05 Eh
   gradient norm :     0.0015197 Eh/α   predicted    -0.2933638E-05 ( -26.89%)
   displ. norm   :     0.0066526 α      lambda       -0.2669673E-05
   maximum displ.:     0.0022764 α      in ANC's #29, #25, #22, ...

........................................................................
.............................. CYCLE    9 ..............................
........................................................................
     iter. time                 ...        0 min,  0.000 sec
 * total energy  :    -6.2317553 Eh     change       -0.1857403E-05 Eh
   gradient norm :     0.0008371 Eh/α   predicted    -0.1352290E-05 ( -27.19%)
   displ. norm   :     0.0018277 α      lambda       -0.4347194E-06
   maximum displ.:     0.0008416 α      in ANC's #36, #29, #18, ...

........................................................................
.............................. CYCLE   10 ..............................
........................................................................
     iter. time                 ...        0 min,  0.000 sec
 * total energy  :    -6.2317558 Eh     change       -0.4821682E-06 Eh
   gradient norm :     0.0004103 Eh/α   predicted    -0.2425414E-06 ( -49.70%)
   displ. norm   :     0.0014569 α      lambda       -0.2223909E-06
   maximum displ.:     0.0005027 α      in ANC's #36, #37, #1, ...

   *** FAILED TO CONVERGE GEOMETRY OPTIMIZATION IN 10 ITERATIONS ***


 ANCopt (total)                0 d,  0 h,  0 min,  0.007 sec
 optimizer setup                ...        0 min,  0.000 sec (  0.860%)
 model hessian                  ...        0 min,  0.000 sec (  3.393%)
 ANC generation                 ...        0 min,  0.001 sec (  9.138%)
 coordinate transformation      ...        0 min,  0.000 sec (  0.444%)
 single point calculation       ...        0 min,  0.005 sec ( 74.916%)
 optimization log               ...        0 min,  0.000 sec (  5.643%)
 hessian update                 ...        0 min,  0.000 sec (  0.640%)
 rational function              ...        0 min,  0.000 sec (  2.800%)

================
 final structure:
================
ATOM      1  C   GLY A  12      -0.797  -9.128  -2.995  1.00  0.00           C  
ATOM      2  O   GLY A  12      -1.894  -8.742  -2.702  1.00  0.00           O  
ATOM      3  N   GLY A  13      -0.004  -8.494  -3.907  1.00  0.00           N  
ATOM      4  CA  GLY A  13       1.320  -8.900  -4.372  1.00  0.00           C  
ATOM      5  C   GLY A  13       1.537  -8.514  -5.812  1.00  0.00           C  
ATOM      6  O   GLY A  13       0.614  -8.603  -6.594  1.00  0.00           O  
ATOM      7  H   GLY A  13      -0.379  -7.678  -4.390  1.00  0.00           H  
ATOM      8  HA2 GLY A  13       2.078  -8.451  -3.728  1.00  0.00           H  
ATOM      9  HA3 GLY A  13       1.410  -9.987  -4.294  1.00  0.00           H  
ATOM     10  N   GLY A  14       2.788  -8.097  -6.217  1.00  0.00           N  
ATOM     11  CA  GLY A  14       3.005  -7.602  -7.563  1.00  0.00           C  
ATOM     12  C   GLY A  14       3.149  -6.101  -7.574  1.00  0.00           C  
ATOM     13  O   GLY A  14       2.230  -5.459  -7.106  1.00  0.00           O  
ATOM     14  H   GLY A  14       3.511  -7.856  -5.539  1.00  0.00           H  
ATOM     15  HA2 GLY A  14       3.861  -8.110  -8.009  1.00  0.00           H  
ATOM     16  HA3 GLY A  14       2.123  -7.875  -8.155  1.00  0.00           H  
ATOM     17  N   GLY A  15       4.253  -5.428  -8.076  1.00  0.00           N  
ATOM     18  CA  GLY A  15       5.425  -5.995  -8.751  1.00  0.00           C  
ATOM     19  C   GLY A  15       5.418  -5.681 -10.222  1.00  0.00           C  
ATOM     20  O   GLY A  15       4.640  -6.270 -10.942  1.00  0.00           O  
ATOM     21  H   GLY A  15       4.198  -4.415  -8.144  1.00  0.00           H  
ATOM     22  HA2 GLY A  15       6.331  -5.602  -8.279  1.00  0.00           H  
ATOM     23  HA3 GLY A  15       5.453  -7.077  -8.614  1.00  0.00           H  
ATOM     24  N   GLY A  16       6.287  -4.728 -10.713  1.00  0.00           N  
ATOM     25  CA  GLY A  16       6.178  -4.244 -12.082  1.00  0.00           C  
ATOM     26  C   GLY A  16       5.810  -2.777 -12.099  1.00  0.00           C  
ATOM     27  O   GLY A  16       4.859  -2.436 -11.444  1.00  0.00           O  
ATOM     28  H   GLY A  16       6.796  -4.108 -10.081  1.00  0.00           H  
ATOM     29  HA2 GLY A  16       7.117  -4.441 -12.609  1.00  0.00           H  
ATOM     30  HA3 GLY A  16       5.392  -4.825 -12.574  1.00  0.00           H  
ATOM     31  N   GLY A  17       6.559  -1.846 -12.840  1.00  0.00           N  
ATOM     32  CA  GLY A  17       7.733  -2.015 -13.565  1.00  0.00           C  
ATOM     33  H   GLY A  17       6.210  -0.873 -12.811  1.00  0.00           H  
ATOM     34  HA2 GLY A  17       8.535  -2.351 -12.888  1.00  0.00           H  
ATOM     35  HA3 GLY A  17       7.637  -2.819 -14.303  1.00  0.00           H  
END

 Bond Distances (Angstroems)
 ---------------------------
C1-O2=1.1987         C1-N3=1.3649         O2-C1=1.1987         N3-C1=1.3649         N3-C4=1.4616         N3-H7=1.0197         
C4-N3=1.4616         C4-C5=1.5066         C4-H8=1.0908         C4-H9=1.0935         C5-C4=1.5066         C5-O6=1.2127         
C5-N10=1.3795        O6-C5=1.2127         H7-N3=1.0197         H8-C4=1.0908         H9-C4=1.0935         N10-C5=1.3795        
N10-C11=1.4508       N10-H14=1.0206       C11-N10=1.4508       C11-C12=1.5076       C11-H15=1.0910       C11-H16=1.0963       
C12-C11=1.5076       C12-O13=1.2145       C12-N17=1.3874       O13-C12=1.2145       H14-N10=1.0206       H15-C11=1.0910       
H16-C11=1.0963       N17-C12=1.3874       N17-C18=1.4656       N17-H21=1.0168       C18-N17=1.4656       C18-C19=1.5045       
C18-H22=1.0947       C18-H23=1.0910       C19-C18=1.5045       C19-O20=1.2121       C19-N24=1.3802       O20-C19=1.2121       
H21-N17=1.0168       H22-C18=1.0947       H23-C18=1.0910       N24-C19=1.3802       N24-C25=1.4562       N24-H28=1.0208       
C25-N24=1.4562       C25-C26=1.5128       C25-H29=1.0943       C25-H30=1.0938       C26-C25=1.5128       C26-O27=1.2041       
C26-N31=1.4064       O27-C26=1.2041       H28-N24=1.0208       H29-C25=1.0943       H30-C25=1.0938       N31-C26=1.4064       
N31-C32=1.3904       N31-H33=1.0331       C32-N31=1.3904       C32-H34=1.1023       C32-H35=1.0951       H33-N31=1.0331       
H34-C32=1.1023       H35-C32=1.0951       
 C  H  Rav=1.0943 sigma=0.0032  Rmin=1.0908  Rmax=1.1023    10
 C  C  Rav=1.5079 sigma=0.0030  Rmin=1.5045  Rmax=1.5128     4
 N  H  Rav=1.0222 sigma=0.0056  Rmin=1.0168  Rmax=1.0331     5
 N  C  Rav=1.4143 sigma=0.0376  Rmin=1.3649  Rmax=1.4656    10
 O  C  Rav=1.2084 sigma=0.0060  Rmin=1.1987  Rmax=1.2145     5

 selected bond angles (degree)
 --------------------
N3-C1-O2=122.98                C4-N3-C1=127.57                H7-N3-C1=118.36                H7-N3-C4=113.89                
C5-C4-N3=111.30                H8-C4-N3=109.08                H8-C4-C5=111.02                H9-C4-N3=109.18                
H9-C4-C5=108.15                H9-C4-H8=108.03                O6-C5-C4=119.22                N10-C5-C4=119.23               
N10-C5-O6=121.54               C11-N10-C5=120.75              H14-N10-C5=121.30              H14-N10-C11=115.48             

 selected dihedral angles (degree)
 ---------------------------------
C4-N3-C1-O2=182.39            H7-N3-C1-O2=357.23            C5-C4-N3-C1=147.06            C5-C4-N3-H7=332.03            
H8-C4-N3-C1=269.90            H8-C4-N3-H7= 94.87            H9-C4-N3-C1= 27.75            H9-C4-N3-H7=212.72            
O6-C5-C4-N3=322.03            O6-C5-C4-H8=200.31            O6-C5-C4-H9= 81.95            N10-C5-C4-N3=143.48           
N10-C5-C4-H8= 21.76           N10-C5-C4-H9=263.40           C11-N10-C5-C4=185.66          C11-N10-C5-O6=  7.14          
H14-N10-C5-C4=346.99          H14-N10-C5-O6=168.47          
           -------------------------------------------------
          |                Final Singlepoint                |
           -------------------------------------------------
         :::::::::::::::::::::::::::::::::::::::::::::::::::::
         ::                     SUMMARY                     ::
         :::::::::::::::::::::::::::::::::::::::::::::::::::::
         :: total energy              -6.231755979617 Eh    ::
         :: total w/o Gsolv           -6.193021344210 Eh    ::
         :: total w/o Gsasa/hb        -6.227233286282 Eh    ::
         :: gradient norm              0.000176050590 Eh/a0 ::
         ::.................................................::
         :: bond energy               -6.291600273863 Eh    ::
         :: angle energy               0.029958249061 Eh    ::
         :: torsion energy             0.023113611854 Eh    ::
         :: repulsion energy           0.379969339625 Eh    ::
         :: electrostat energy        -0.309036840378 Eh    ::
         :: dispersion energy         -0.022712359315 Eh    ::
         :: HB energy                 -0.000517200144 Eh    ::
         :: XB energy                  0.000000000000 Eh    ::
         :: bonded atm energy         -0.006145641562 Eh    ::
         :: external energy            0.000000000000 Eh    ::
         :: -> Gsolv                  -0.038734635407 Eh    ::
         ::    -> Gborn               -0.034211942072 Eh    ::
         ::    -> Gsasa                0.010118884253 Eh    ::
         ::    -> Ghb                 -0.015006516843 Eh    ::
         ::    -> Gshift               0.000364939255 Eh    ::
         :: add. restraining           0.003949770512 Eh    ::
         :: total charge               0.000000000000 e     ::
         ::.................................................::
         :: atomisation energy         0.000000000000 Eh    ::
         :::::::::::::::::::::::::::::::::::::::::::::::::::::

           -------------------------------------------------
          |                Property Printout                |
           -------------------------------------------------
           -------------------------------------------------
          |                Geometry Summary                 |
           -------------------------------------------------

      molecular mass/u    :      285.2570109
   center of mass at/Å    :        3.4433734      -6.0434226      -8.2809853
  moments of inertia/u·Å² :        0.3828754E+03   0.6414809E+04   0.6576780E+04
rotational constants/cm⁻¹ :        0.4402903E-01   0.2627924E-02   0.2563205E-02

 * 29 selected distances

     #   Z          #   Z                                           value/Å
     1   6  C       3   7  N                                      1.3648562
     3   7  N       4   6  C                                      1.4616488
     5   6  C       6   8  O                                      1.2127461
     3   7  N       7   1  H                                      1.0197492
     4   6  C       8   1  H                                      1.0908345
     4   6  C       9   1  H                                      1.0934809
     5   6  C      10   7  N                                      1.3795022
    10   7  N      11   6  C                                      1.4507791
    12   6  C      13   8  O                                      1.2145005
    10   7  N      14   1  H                                      1.0206170
    11   6  C      15   1  H                                      1.0910463
    11   6  C      16   1  H                                      1.0963061
    12   6  C      17   7  N                                      1.3874037
    17   7  N      18   6  C                                      1.4656252 (max)
    19   6  C      20   8  O                                      1.2120885
    17   7  N      21   1  H                                      1.0168454 (min)
    18   6  C      22   1  H                                      1.0947499
    18   6  C      23   1  H                                      1.0910425
    19   6  C      24   7  N                                      1.3802273
    24   7  N      25   6  C                                      1.4561980
    26   6  C      27   8  O                                      1.2041088
    24   7  N      28   1  H                                      1.0207778
    25   6  C      29   1  H                                      1.0943356
    25   6  C      30   1  H                                      1.0937630
    26   6  C      31   7  N                                      1.4063662
    31   7  N      32   6  C                                      1.3904422
    31   7  N      33   1  H                                      1.0331413
    32   6  C      34   1  H                                      1.1022858
    32   6  C      35   1  H                                      1.0951244

 * 4 distinct bonds (by element types)

   Z      Z             #   av. dist./Å        max./Å        min./Å
   1 H    6 C          10     1.0942969     1.1022858     1.0908345
   1 H    7 N           5     1.0222261     1.0331413     1.0168454
   6 C    7 N          10     1.4143049     1.4656252     1.3648562
   6 C    8 O           4     1.2108610     1.2145005     1.2041088


optimized geometry written to: xtbopt.pdb


           -------------------------------------------------
          | TOTAL ENERGY               -6.231755979617 Eh   |
          | GRADIENT NORM               0.000176050590 Eh/α |
           -------------------------------------------------
########################################################################
[WARNING] Runtime exception occurred
-1- gfnff_setup: Could not read topology file.
########################################################################

------------------------------------------------------------------------
 unit  open   action     filename
   10 false : read       xtb_settings.inp
   10 false : read       substructure_79.pdb
   10 false : read       xtb_settings.inp
   10 false : written    gfnff_topo
   10 false : written    gfnff_adjacency
   10 false : written    gfnff_charges
   10 false : deleted    .xtboptok
   10 false : replaced   xtbopt.log
   11 false : created    .xtboptok
   11 false : replaced   gfnff_charges
   10 false : replaced   xtbopt.pdb

------------------------------------------------------------------------
 * finished run on 2025/05/27 at 09:37:58.821     
------------------------------------------------------------------------
 total:
 * wall-time:     0 d,  0 h,  0 min,  0.012 sec
 *  cpu-time:     0 d,  0 h,  0 min,  0.012 sec
 * ratio c/w:     0.999 speedup
 SCF:
 * wall-time:     0 d,  0 h,  0 min,  0.001 sec
 *  cpu-time:     0 d,  0 h,  0 min,  0.001 sec
 * ratio c/w:     1.001 speedup
 ANC optimizer:
 * wall-time:     0 d,  0 h,  0 min,  0.008 sec
 *  cpu-time:     0 d,  0 h,  0 min,  0.008 sec
 * ratio c/w:     1.000 speedup

