      -----------------------------------------------------------      
     |                   =====================                   |     
     |                           x T B                           |     
     |                   =====================                   |     
     |                         S. Grimme                         |     
     |          Mulliken Center for Theoretical Chemistry        |     
     |                    University of Bonn                     |     
      -----------------------------------------------------------      

   * xtb version 6.6.1 (8d0f1dd) compiled by 'conda@1efc2f54142f' on 2023-08-01

   xtb is free software: you can redistribute it and/or modify it under
   the terms of the GNU Lesser General Public License as published by
   the Free Software Foundation, either version 3 of the License, or
   (at your option) any later version.
   
   xtb is distributed in the hope that it will be useful,
   but WITHOUT ANY WARRANTY; without even the implied warranty of
   MERCHANTABILITY or FITNESS FOR A PARTICULAR PURPOSE.  See the
   GNU Lesser General Public License for more details.
   
   Cite this work as:
   * C. Bannwarth, E. Caldeweyher, S. Ehlert, A. Hansen, P. Pracht,
     J. Seibert, S. Spicher, S. Grimme, WIREs Comput. Mol. Sci., 2020, 11,
     e01493. DOI: 10.1002/wcms.1493
   
   for GFN2-xTB:
   * C. Bannwarth, S. Ehlert and S. Grimme., J. Chem. Theory Comput., 2019,
     15, 1652-1671. DOI: 10.1021/acs.jctc.8b01176
   for GFN1-xTB:
   * S. Grimme, C. Bannwarth, P. Shushkov, J. Chem. Theory Comput., 2017,
     13, 1989-2009. DOI: 10.1021/acs.jctc.7b00118
   for GFN0-xTB:
   * P. Pracht, E. Caldeweyher, S. Ehlert, S. Grimme, ChemRxiv, 2019, preprint.
     DOI: 10.26434/chemrxiv.8326202.v1
   for GFN-FF:
   * S. Spicher and S. Grimme, Angew. Chem. Int. Ed., 2020, 59, 15665-15673.
     DOI: 10.1002/anie.202004239
   
   for ALPB and GBSA implicit solvation:
   * S. Ehlert, M. Stahn, S. Spicher, S. Grimme, J. Chem. Theory Comput.,
     2021, 17, 4250-4261. DOI: 10.1021/acs.jctc.1c00471
   
   for DFT-D4:
   * E. Caldeweyher, C. Bannwarth and S. Grimme, J. Chem. Phys., 2017,
     147, 034112. DOI: 10.1063/1.4993215
   * E. Caldeweyher, S. Ehlert, A. Hansen, H. Neugebauer, S. Spicher,
     C. Bannwarth and S. Grimme, J. Chem. Phys., 2019, 150, 154122.
     DOI: 10.1063/1.5090222
   * E. Caldeweyher, J.-M. Mewes, S. Ehlert and S. Grimme, Phys. Chem. Chem. Phys.
     2020, 22, 8499-8512. DOI: 10.1039/D0CP00502A
   
   for sTDA-xTB:
   * S. Grimme and C. Bannwarth, J. Chem. Phys., 2016, 145, 054103.
     DOI: 10.1063/1.4959605
   
   in the mass-spec context:
   * V. Asgeirsson, C. Bauer and S. Grimme, Chem. Sci., 2017, 8, 4879.
     DOI: 10.1039/c7sc00601b
   * J. Koopman and S. Grimme, ACS Omega 2019, 4, 12, 15120-15133.
     DOI: 10.1021/acsomega.9b02011
   
   for metadynamics refer to:
   * S. Grimme, J. Chem. Theory Comput., 2019, 155, 2847-2862
     DOI: 10.1021/acs.jctc.9b00143
   
   for SPH calculations refer to:
   * S. Spicher and S. Grimme, J. Chem. Theory Comput., 2021, 17, 1701-1714
     DOI: 10.1021/acs.jctc.0c01306
   
   with help from (in alphabetical order)
   P. Atkinson, C. Bannwarth, F. Bohle, G. Brandenburg, E. Caldeweyher
   M. Checinski, S. Dohm, S. Ehlert, S. Ehrlich, I. Gerasimov, C. Hölzer
   A. Katbashev, J. Koopman, C. Lavigne, S. Lehtola, F. März, M. Müller,
   F. Musil, H. Neugebauer, J. Pisarek, C. Plett, P. Pracht, F. Pultar,
   J. Seibert, P. Shushkov, S. Spicher, M. Stahn, M. Steiner, T. Strunk,
   J. Stückrath, T. Rose, and J. Unsleber
   
 * started run on 2025/05/27 at 09:37:31.538     

           -------------------------------------------------
          |                Calculation Setup                |
           -------------------------------------------------

          program call               : xtb substructure_3.pdb --gfnff --input xtb_settings.inp --opt vtight --alpb water --verbose
          coordinate file            : substructure_3.pdb
          xtbhome directory          : /home/dargen3
          path for xtb               : /home/dargen3
          xcontrol input file        : xtb_settings.inp
          omp threads                :                     1

$$$$$$$$$$$$$$$$$$$$$$$$$$$$$$$$$$$$$$$$$$$$$$$$$$$$$$$$$$$$$$$$$$$$$$$$
 CONSTRAINTS & SCANS: DEBUG SECTION
$$$$$$$$$$$$$$$$$$$$$$$$$$$$$$$$$$$$$$$$$$$$$$$$$$$$$$$$$$$$$$$$$$$$$$$$
   ID    Z sym.   atoms
    1    6  C     1, 4, 5, 11, 12, 18, 19, 25, 26, 32
    2    8  O     2, 6, 13, 20, 27
    3    7  N     3, 10, 17, 24, 31
    4    1  H     7-9, 14-16, 21-23, 28-30, 33-35
> constrain
-> atoms: 1, 2, 3, 4, 5, 6, 7, 8, 9, 10, 11, 12, 13, 14, 15, 16, 18, 24, 25, 26, 27, 28, 29, 30, 31, 32, 33, 34, 35
--> 1: 1
--> 2: 2
--> 3: 3
--> 4: 4
--> 5: 5
--> 6: 6
--> 7: 7
--> 8: 8
--> 9: 9
--> 10: 10
--> 11: 11
--> 12: 12
--> 13: 13
--> 14: 14
--> 15: 15
--> 16: 16
--> 17: 18
--> 18: 24
--> 19: 25
--> 20: 26
--> 21: 27
--> 22: 28
--> 23: 29
--> 24: 30
--> 25: 31
--> 26: 32
--> 27: 33
--> 28: 34
--> 29: 35
-> force constant=1.0
$$$$$$$$$$$$$$$$$$$$$$$$$$$$$$$$$$$$$$$$$$$$$$$$$$$$$$$$$$$$$$$$$$$$$$$$
           -------------------------------------------------
          |                   Constraints                   |
           -------------------------------------------------

 * 29 constrained atom positions
   positions refering to input geometry

     #   Z                                   position/Å      displ./Å
     1   6 C     -0.6910001    -9.0680008    -2.7990003     0.0000000
     2   8 O     -1.6820002    -8.5370008    -2.3420002     0.0000000
     3   7 N      0.1130000    -8.3760008    -3.7360003     0.0000000
     4   6 C      1.3240001    -8.8870008    -4.3620004     0.0000000
     5   6 C      1.4440001    -8.3450008    -5.7740005     0.0000000
     6   8 O      0.4550000    -8.0720007    -6.4200006     0.0000000
     7   1 H     -0.2220000    -7.5070007    -4.1420004     0.0000000
     8   1 H      2.1790002    -8.6520008    -3.7740004     0.0000000
     9   1 H      1.2370001    -9.9910009    -4.4500004     0.0000000
    10   7 N      2.7270003    -8.2260008    -6.2850006     0.0000000
    11   6 C      3.0050003    -7.6070007    -7.5660007     0.0000000
    12   6 C      3.2240003    -6.1210006    -7.4180007     0.0000000
    13   8 O      2.3820002    -5.4800005    -6.8230006     0.0000000
    14   1 H      3.5490003    -8.3920008    -5.7030005     0.0000000
    15   1 H      3.8220004    -8.1020008    -8.0700007     0.0000000
    16   1 H      2.1010002    -7.7490007    -8.1890008     0.0000000
    18   6 C      5.4280005    -5.9890006    -8.7440008     0.0000000
    24   7 N      6.2260006    -4.7450004   -10.7190010     0.0000000
    25   6 C      6.1780006    -4.2520004   -12.0880011     0.0000000
    26   6 C      5.7740005    -2.8060003   -12.1320011     0.0000000
    27   8 O      4.7520004    -2.4880002   -11.5590011     0.0000000
    28   1 H      6.8900006    -4.2600004   -10.1140009     0.0000000
    29   1 H      7.1420007    -4.4190004   -12.5700012     0.0000000
    30   1 H      5.4280005    -4.8480004   -12.6200012     0.0000000
    31   7 N      6.5060006    -1.8280002   -12.8740012     0.0000000
    32   6 C      7.7600007    -2.0220002   -13.5740013     0.0000000
    33   1 H      6.1020006    -0.9040001   -13.0050012     0.0000000
    34   1 H      8.5730008    -2.0810002   -12.8620012     0.0000000
    35   1 H      7.7070007    -3.0050003   -14.1010013     0.0000000

     applying 406 atom pairwise harmonic potentials
       applied force constant per pair:     0.0357143
     effective force constant per atom:     1.0000000
         constraining energy/grad norm:     0.0000000     0.0000000

     total constraint energy/grad norm:     0.0000000     0.0000000

          charge from pdb residues: 0

          entering GFN-FF setup routine... 35

          ==================== Thresholds ====================
          CN  :   150.00000
          rep :   500.00000
          disp:  2500.00000
          HB1 :   250.00000
          HB2 :   450.00000

          Pauling EN used:
          Z : 1  EN :  2.20
          Z : 6  EN :  2.55
          Z : 7  EN :  3.04
          Z : 8  EN :  3.44
          electric field strengths (au): 0.000

           ------------------------------------------------- 
          |           Force Field Initialization            |
           ------------------------------------------------- 

          distances ...
          ----------------------------------------
          generating topology and atomic info file ...
          pair mat ...
          computing topology distances matrix with Floyd-Warshall algo ...
          making topology EEQ charges ...
          #fragments for EEQ constrain from pdb file: 6
          ----------------------------------------
          generating topology and atomic info file ...
          pair mat ...
          computing topology distances matrix with Floyd-Warshall algo ...
          making topology EEQ charges ...
          #fragments for EEQ constrain from pdb file: 6
          rings ...
          # BATM   270
          # H in HB   15
          doing iterative Hueckel for 5 subsystem(s) ...
          iterative Hueckel run to get P ...
Hueckel system :  1 charge :   0 ndim/Nel :    3    3   eps(HOMO/LUMO)   -0.953512   -0.953512
Hueckel system :  2 charge :   0 ndim/Nel :    3    4   eps(HOMO/LUMO)   -0.911362   -0.911362
Hueckel system :  3 charge :   0 ndim/Nel :    3    4   eps(HOMO/LUMO)   -0.911922   -0.911922
Hueckel system :  4 charge :   0 ndim/Nel :    3    4   eps(HOMO/LUMO)   -0.910012   -0.910012
Hueckel system :  5 charge :   0 ndim/Nel :    4    5   eps(HOMO/LUMO)    1.305315    1.305315
WARNING: probably wrong pi occupation for system 5. Second attempt with Nel=Nel-1!
 at,nb,topo%hyb,Npiel:          26  C             3           2           1
 at,nb,topo%hyb,Npiel:          27  O             1           2           1
 at,nb,topo%hyb,Npiel:          31  N             3           3           2
 at,nb,topo%hyb,Npiel:          32  C             3           2           1

          eigenvalues
 #    :           1          2          3          4
 occ. :        2.000      1.987      0.013      0.000
 eps  :        -4.349     -2.183      1.305      3.389
Hueckel system :  5 charge :   0 ndim/Nel :    4    4   eps(HOMO/LUMO)   -2.182828    1.305315

  atom   neighbors  erfCN metchar sp-hybrid imet pi  qest     coordinates
    1   C      2    1.92   0.00        -2    0    1   0.120   -1.305801  -17.136036   -5.289343
    2   O      1    0.98   0.00         2    0    1  -0.120   -3.178519  -16.132592   -4.425739
    3   N      3    2.79   0.00        -3    0    1  -0.166    0.213539  -15.828346   -7.060017
    4   C      4    3.49   0.00         3    0    0   0.005    2.501997  -16.793996   -8.242985
    5   C      3    2.79   0.00         2    0    1   0.174    2.728765  -15.769765  -10.911279
    6   O      1    0.98   0.00         2    0    1  -0.352    0.859825  -15.253869  -12.132042
    7   H      1    0.98   0.00         0    0    0   0.153   -0.419519  -14.186174   -7.827246
    8   H      1    0.98   0.00         0    0    0   0.093    4.117713  -16.349910   -7.131826
    9   H      1    0.97   0.01         0    0    0   0.093    2.337591  -18.880254   -8.409281
   10   N      3    2.79   0.00        -3    0    1  -0.168    5.153283  -15.544887  -11.876929
   11   C      4    3.49   0.00         3    0    0   0.006    5.678627  -14.375147  -14.297668
   12   C      3    2.79   0.00         2    0    1   0.175    6.092477  -11.567014  -14.017988
   13   O      1    0.98   0.00         2    0    1  -0.352    4.501328  -10.355699  -12.893601
   14   H      1    0.98   0.00         0    0    0   0.154    6.706638  -15.858582  -10.777108
   15   H      1    0.97   0.00         0    0    0   0.092    7.222533  -15.310561  -15.250090
   16   H      1    0.97   0.01         0    0    0   0.092    3.970315  -14.643488  -15.474967
   17   N      3    2.79   0.00        -3    0    1  -0.167    8.254324  -10.293338  -14.993087
   18   C      4    3.49   0.00         3    0    0   0.005   10.257433  -11.317570  -16.523765
   19   C      3    2.79   0.00         2    0    1   0.178    9.977754  -10.652386  -19.295993
   20   O      1    0.98   0.00         2    0    1  -0.353    8.356369  -11.644492  -20.573448
   21   H      1    0.98   0.00         0    0    0   0.151    8.265662   -8.371487  -14.926947
   22   H      1    0.97   0.00         0    0    0   0.093   12.081019  -10.731755  -15.830236
   23   H      1    0.97   0.01         0    0    0   0.093   10.253654  -13.417055  -16.387705
   24   N      3    2.79   0.00        -3    0    1  -0.170   11.765435   -8.966750  -20.255974
   25   C      4    3.49   0.00         3    0    0   0.006   11.674728   -8.035115  -22.843009
   26   C      3    2.79   0.00         2    0    1   0.195   10.911279   -5.302572  -22.926157
   27   O      1    0.98   0.00         2    0    1  -0.357    8.979979   -4.701639  -21.843344
   28   H      1    0.98   0.00         0    0    0   0.147   13.020213   -8.050233  -19.112690
   29   H      1    0.97   0.00         0    0    0   0.090   13.496424   -8.350700  -23.753857
   30   H      1    0.97   0.00         0    0    0   0.090   10.257433   -9.161392  -23.848344
   31   N      3    2.79   0.00         3    0    1  -0.226   12.294558   -3.454419  -24.328334
   32   C      3    2.78   0.00         2    0    1  -0.008   14.664275   -3.821026  -25.651142
   33   H      1    0.98   0.00         0    0    0   0.123   11.531109   -1.708312  -24.575888
   34   H      1    0.97   0.00         0    0    0   0.055   16.200622   -3.932520  -24.305657
   35   H      1    0.97   0.01         0    0    0   0.055   14.564119   -5.678627  -26.647028

molecular fragment  # atoms  topo charge
       1             2            -0.000
       2             7            -0.000
       3             7            -0.000
       4             7             0.000
       5             7             0.000
       6             5            -0.000


          #atoms :   35
          #bonds :   34

 bond atoms        type  in ring    R      R0    piBO    fqq  kbond(tot)  alp
 O  C     2    1      2    0     1.214   0.995   0.799   1.047  -0.252   0.584
 N  C     3    1      2    0     1.415   1.214   0.504   1.047  -0.235   0.524
 C  N     4    3      1    0     1.456   1.325 -99.000   1.033  -0.151   0.496
 C  C     5    4      1    0     1.517   1.332 -99.000   1.013  -0.162   0.475
 O  C     6    5      2    0     1.212   1.031   0.856   1.047  -0.262   0.584
 H  N     7    3      1    0     1.016   0.890 -99.000   1.047  -0.176   0.551
 H  C     8    4      1    0     1.064   0.977 -99.000   1.018  -0.164   0.482
 H  C     9    4      1    0     1.111   0.976 -99.000   1.018  -0.164   0.482
 N  C    10    5      2    0     1.386   1.263   0.503   1.047  -0.234   0.524
 C  N    11   10      1    0     1.450   1.326 -99.000   1.036  -0.151   0.496
 C  C    12   11      1    0     1.509   1.332 -99.000   1.011  -0.162   0.475
 O  C    13   12      2    0     1.214   1.031   0.856   1.047  -0.262   0.584
 H  N    14   10      1    0     1.021   0.890 -99.000   1.047  -0.176   0.551
 H  C    15   11      1    0     1.080   0.976 -99.000   1.016  -0.164   0.482
 H  C    16   11      1    0     1.107   0.976 -99.000   1.016  -0.164   0.482
 N  C    17   12      2    0     1.424   1.262   0.503   1.047  -0.234   0.524
 C  N    18   17      1    0     1.440   1.325 -99.000   1.033  -0.151   0.496
 C  C    19   18      1    0     1.516   1.332 -99.000   1.014  -0.162   0.475
 O  C    20   19      2    0     1.212   1.031   0.856   1.047  -0.262   0.584
 H  N    21   17      1    0     1.018   0.890 -99.000   1.047  -0.176   0.551
 H  C    22   18      1    0     1.078   0.976 -99.000   1.018  -0.164   0.482
 H  C    23   18      1    0     1.113   0.976 -99.000   1.018  -0.164   0.482
 N  C    24   19      2    0     1.396   1.263   0.504   1.047  -0.234   0.524
 C  N    25   24      1    0     1.456   1.326 -99.000   1.034  -0.151   0.496
 C  C    26   25      1    0     1.502   1.332 -99.000   1.011  -0.162   0.475
 O  C    27   26      2    0     1.214   1.017   0.930   1.047  -0.274   0.584
 H  N    28   24      1    0     1.021   0.890 -99.000   1.047  -0.176   0.551
 H  C    29   25      1    0     1.091   0.976 -99.000   1.018  -0.164   0.482
 H  C    30   25      1    0     1.096   0.976 -99.000   1.018  -0.164   0.482
 N  C    31   26      2    0     1.429   1.291   0.346   1.047  -0.203   0.524
 C  N    32   31      2    0     1.449   1.189   0.906   1.006  -0.302   0.524
 H  N    33   31      1    0     1.017   0.890 -99.000   1.047  -0.176   0.551
 H  C    34   32      1    0     1.082   0.949 -99.000   1.029  -0.179   0.490
 H  C    35   32      1    0     1.117   0.949 -99.000   1.029  -0.179   0.490
          #angl  :   55

 angle atoms        phi0    phi      FC  pi rings
    1    3    2   145.000 119.948   0.082 F   0
    3    4    1   115.000 125.843   0.411 F   0
    3    7    1   115.000 119.699   0.335 F   0
    3    7    4   104.000 113.745   0.182 F   0
    4    5    3   109.500 109.912   0.307 F   0
    4    8    3   109.500 110.689   0.253 F   0
    4    8    5   109.500 111.831   0.251 F   0
    4    9    3   109.500 108.526   0.253 F   0
    4    9    5   109.500 106.707   0.251 F   0
    4    9    8   108.600 109.039   0.209 F   0
    5    6    4   120.000 120.783   0.178 F   0
    5   10    4   120.000 116.549   0.243 F   0
    5   10    6   120.000 122.634   0.176 F   0
   10   11    5   115.000 122.679   0.409 F   0
   10   14    5   115.000 121.413   0.333 F   0
   10   14   11   104.000 114.762   0.182 F   0
   11   12   10   109.500 111.198   0.307 F   0
   11   15   10   109.500 111.206   0.253 F   0
   11   15   12   109.500 112.782   0.252 F   0
   11   16   10   109.500 106.614   0.253 F   0
   11   16   12   109.500 107.455   0.252 F   0
   11   16   15   108.600 107.236   0.209 F   0
   12   13   11   120.000 117.856   0.178 F   0
   12   17   11   120.000 123.150   0.243 F   0
   12   17   13   120.000 118.992   0.176 F   0
   17   18   12   115.000 128.086   0.409 F   0
   17   21   12   115.000 117.719   0.333 F   0
   17   21   18   104.000 113.028   0.182 F   0
   18   19   17   109.500 112.650   0.307 F   0
   18   22   17   109.500 111.053   0.253 F   0
   18   22   19   109.500 110.493   0.251 F   0
   18   23   17   109.500 109.750   0.253 F   0
   18   23   19   109.500 107.105   0.251 F   0
   18   23   22   108.600 105.460   0.209 F   0
   19   20   18   120.000 120.553   0.178 F   0
   19   24   18   120.000 115.747   0.242 F   0
   19   24   20   120.000 123.614   0.176 F   0
   24   25   19   115.000 122.428   0.409 F   0
   24   28   19   115.000 121.918   0.333 F   0
   24   28   25   104.000 114.699   0.182 F   0
   25   26   24   109.500 111.249   0.307 F   0
   25   29   24   109.500 109.547   0.253 F   0
   25   29   26   109.500 111.851   0.251 F   0
   25   30   24   109.500 107.153   0.253 F   0
   25   30   26   109.500 108.984   0.251 F   0
   25   30   29   108.600 107.886   0.209 F   0
   26   27   25   120.000 117.695   0.177 F   0
   26   31   25   120.000 122.425   0.241 F   0
   26   31   27   120.000 119.796   0.174 F   0
   31   32   26   113.000 127.036   0.042 F   0
   31   33   26   113.000 119.022   0.211 F   0
   31   33   32   113.000 113.777   0.105 F   0
   32   34   31   120.000 109.848   0.204 F   0
   32   35   31   120.000 107.743   0.204 F   0
   32   35   34   120.000 107.346   0.167 F   0
 torsion atoms        nrot   rings    phi0    phi      FC
    3    1    4    2   2      0     180.000 179.928   0.765
    3    1    7    2   2      0     180.000  10.384   1.135
    4    3    5    1   3      0     180.000 146.598   0.024
    4    3    5    7   3      0     180.000  23.622   0.032
    4    3    8    1   3      0     180.000  89.376   0.034
    4    3    8    7   3      0     180.000 100.404   0.045
    4    3    9    1   3      0     180.000  30.248   0.034
    4    3    9    7   3      0     180.000 139.972   0.045
    5    4    6    3   3      0     180.000  29.539   0.066
    5    4    6    8   3      0     180.000 152.898   0.115
    5    4    6    9   3      0     180.000  87.949   0.115
    5    4   10    3   3      0     180.000 152.506   0.041
    5    4   10    8   3      0     180.000  29.146   0.072
    5    4   10    9   3      0     180.000  90.007   0.072
   10    5   11    4   2      0     180.000 173.968   0.615
   10    5   11    6   2      0     180.000   8.117   0.833
   10    5   14    4   2      0     180.000   6.848   0.912
   10    5   14    6   2      0     180.000 175.238   1.236
   11   10   12    5   3      0     180.000  89.083   0.022
   11   10   12   14   3      0     180.000  78.824   0.032
   11   10   15    5   3      0     180.000 144.335   0.032
   11   10   15   14   3      0     180.000  47.757   0.045
   11   10   16    5   3      0     180.000  27.755   0.032
   11   10   16   14   3      0     180.000 164.338   0.045
   12   11   13   10   3      0     180.000  51.814   0.066
   12   11   13   15   3      0     180.000 177.524   0.115
   12   11   13   16   3      0     180.000  64.509   0.115
   12   11   17   10   3      0     180.000 127.798   0.041
   12   11   17   15   3      0     180.000   2.088   0.072
   12   11   17   16   3      0     180.000 115.879   0.072
   17   12   18   11   2      0     180.000   5.228   0.614
   17   12   18   13   2      0     180.000 175.164   0.832
   17   12   21   11   2      0     180.000 171.932   0.911
   17   12   21   13   2      0     180.000   8.460   1.235
   18   17   19   12   3      0     180.000 101.471   0.022
   18   17   19   21   3      0     180.000  65.749   0.032
   18   17   22   12   3      0     180.000 133.979   0.032
   18   17   22   21   3      0     180.000  58.801   0.045
   18   17   23   12   3      0     180.000  17.768   0.032
   18   17   23   21   3      0     180.000 175.012   0.045
   19   18   20   17   3      0     180.000  72.416   0.066
   19   18   20   22   3      0     180.000 162.728   0.115
   19   18   20   23   3      0     180.000  48.349   0.115
   19   18   24   17   3      0     180.000 110.843   0.041
   19   18   24   22   3      0     180.000  14.013   0.072
   19   18   24   23   3      0     180.000 128.392   0.072
   24   19   25   18   2      0     180.000 176.601   0.620
   24   19   25   20   2      0     180.000   6.769   0.840
   24   19   28   18   2      0     180.000   8.381   0.920
   24   19   28   20   2      0     180.000 174.989   1.247
   25   24   26   19   3      0     180.000 108.468   0.022
   25   24   26   28   3      0     180.000  60.536   0.032
   25   24   29   19   3      0     180.000 127.349   0.032
   25   24   29   28   3      0     180.000  63.647   0.045
   25   24   30   19   3      0     180.000  10.563   0.032
   25   24   30   28   3      0     180.000 179.568   0.045
   26   25   27   24   3      0     180.000  53.074   0.066
   26   25   27   29   3      0     180.000 175.942   0.115
   26   25   27   30   3      0     180.000  64.857   0.115
   26   25   31   24   3      0     180.000 130.284   0.041
   26   25   31   29   3      0     180.000   7.416   0.072
   26   25   31   30   3      0     180.000 111.786   0.072
   31   26   32   25   2      0     180.000   5.738   0.343
   31   26   32   27   2      0     180.000 177.688   0.465
   31   26   33   25   2      0     180.000 169.280   0.489
   31   26   33   27   2      0     180.000   7.295   0.663
   32   31   34   26   2      0     180.000  74.661   1.385
   32   31   34   33   2      0     180.000 110.100   1.974
   32   31   35   26   2      0     180.000  41.974   1.385
   32   31   35   33   2      0     180.000 133.265   1.974
 out-of-plane atoms          phi0    phi      FC
    3    7    1    4          0.000   8.343   0.133
    5    6   10    4          0.000  -1.866  23.920
   10   14    5   11          0.000  10.814   0.125
   12   13   17   11          0.000   0.328  23.974
   17   21   12   18          0.000  10.428   0.130
   19   20   24   18          0.000  -3.035  24.122
   24   28   19   25          0.000   9.923   0.116
   26   27   31   25          0.000  -2.891  28.543
   31   33   26   32          0.000   3.976  -0.052
   32   34   35   31          0.000  57.028   0.552
          #tors  :   80
          #nmol  :   6
          #optfrag :   6

 GFN-FF setup done.

           ------------------------------------------------- 
          |                   G F N - F F                   |
          |          A general generic force-field          |
          |                  Version 1.0.3                  | 
           ------------------------------------------------- 
      * Solvation model:               ALPB
        Solvent                        water
        Parameter file                 internal GFN-FF/ALPB
        Dielectric constant                8.0200E+01
        Reference state                gsolv [1 M gas/solution]
        Free energy shift                  3.6494E-04 Eh       2.2900E-01 kcal/mol
        Temperature                        2.9815E+02 K
        Density                            1.0000E+00 kg/L
        Solvent mass                       1.8000E+01 g/mol
        Interaction kernel             P16
        Born radius scaling (c1)           1.5056E+00
        Born radii integrator          GBOBC
        Born offset                        0.0000E+00 a0       0.0000E+00 AA
        H-bond correction              true
        Ion screening                  false
        Surface tension                    1.0000E-05 Eh       1.5569E+01 dyn/cm
        Grid points                               230 per atom
          Number of HB bonds (bound hydrogen)     330
          Number of HB bonds (unbound hydrogen)   43
          Number of XB bonds                      0

 E+G (total)                   0 d,  0 h,  0 min,  0.001 sec
 distance/D3 list               ...        0 min,  0.000 sec (  0.279%)
 non bonded repulsion           ...        0 min,  0.000 sec (  1.833%)
 dCN                            ...        0 min,  0.000 sec (  3.047%)
 EEQ energy and q               ...        0 min,  0.000 sec (  4.368%)
 D3                             ...        0 min,  0.000 sec (  7.648%)
 EEQ gradient                   ...        0 min,  0.000 sec (  4.324%)
 bonds                          ...        0 min,  0.000 sec (  0.932%)
 bend and torsion               ...        0 min,  0.000 sec (  3.784%)
 bonded ATM                     ...        0 min,  0.000 sec (  1.569%)
 HB/XB (incl list setup)        ...        0 min,  0.000 sec ( 10.246%)
 GBSA                           ...        0 min,  0.000 sec ( 64.133%)

         :::::::::::::::::::::::::::::::::::::::::::::::::::::
         ::                     SUMMARY                     ::
         :::::::::::::::::::::::::::::::::::::::::::::::::::::
         :: total energy              -6.215973233725 Eh    ::
         :: total w/o Gsolv           -6.174304218772 Eh    ::
         :: total w/o Gsasa/hb        -6.211108598392 Eh    ::
         :: gradient norm              0.177470691895 Eh/a0 ::
         ::.................................................::
         :: bond energy               -6.258202480443 Eh    ::
         :: angle energy               0.032093689047 Eh    ::
         :: torsion energy             0.019346058502 Eh    ::
         :: repulsion energy           0.365289425757 Eh    ::
         :: electrostat energy        -0.303711975025 Eh    ::
         :: dispersion energy         -0.022681055677 Eh    ::
         :: HB energy                 -0.000432222239 Eh    ::
         :: XB energy                  0.000000000000 Eh    ::
         :: bonded atm energy         -0.006005658694 Eh    ::
         :: external energy            0.000000000000 Eh    ::
         :: -> Gsolv                  -0.041669014953 Eh    ::
         ::    -> Gborn               -0.036804379620 Eh    ::
         ::    -> Gsasa                0.009979473653 Eh    ::
         ::    -> Ghb                 -0.015209048241 Eh    ::
         ::    -> Gshift               0.000364939255 Eh    ::
         :: add. restraining           0.000000000000 Eh    ::
         :: total charge               0.000000000000 e     ::
         ::.................................................::
         :: atomisation energy         0.000000000000 Eh    ::
         :::::::::::::::::::::::::::::::::::::::::::::::::::::

      ----------------------------------------------------------- 
     |                   =====================                   |
     |                        A N C O P T                        |
     |                   =====================                   |
     |               Approximate Normal Coordinate               |
     |                Rational Function Optimizer                |
      ----------------------------------------------------------- 

          ...................................................
          :                      SETUP                      :
          :.................................................:
          :   optimization level         verytight          :
          :   max. optcycles                    10          :
          :   ANC micro-cycles                  10          :
          :   degrees of freedom                99          :
          :.................................................:
          :   RF solver                   davidson          :
          :   write xtbopt.log                true          :
          :   linear?                        false          :
          :   energy convergence         0.1000000E-06 Eh   :
          :   grad. convergence          0.2000000E-03 Eh/α :
          :   maxmium RF displ.          1.0000000          :
          :   Hlow (freq-cutoff)         0.1000000E-01      :
          :   Hmax (freq-cutoff)         5.0000000          :
          :   S6 in model hess.         20.0000000          :
          ...................................................

generating ANC from model Hessian ...
Using GFN-FF Lindh-Hessian
 Shifting diagonal of input Hessian by    0.0000000000000000     
 Lowest  eigenvalues of input Hessian
    0.000000    0.000000    0.000000    0.000000    0.000000    0.000000
    0.018344    0.020615    0.023988    0.028199    0.046701    0.053261
    0.066399    0.072672    0.081568    0.086592    0.094911    0.116454
 Highest eigenvalues
    3.347039    3.690861    3.708826    3.965066    4.034329    4.168966


........................................................................
.............................. CYCLE    1 ..............................
........................................................................
     iter. time                 ...        0 min,  0.001 sec
 * total energy  :    -6.2159732 Eh     change        0.0000000E+00 Eh
   gradient norm :     0.1774707 Eh/α   predicted     0.0000000E+00 (    NaN%)
   displ. norm   :     0.1189716 α      lambda       -0.1435977E-01
   maximum displ.:     0.0358859 α      in ANC's #5, #17, #43, ...

........................................................................
.............................. CYCLE    2 ..............................
........................................................................
     iter. time                 ...        0 min,  0.001 sec
 * total energy  :    -6.2257219 Eh     change       -0.9748685E-02 Eh
   gradient norm :     0.0679109 Eh/α   predicted    -0.7281523E-02 ( -25.31%)
   displ. norm   :     0.0940296 α      lambda       -0.4016757E-02
   maximum displ.:     0.0280795 α      in ANC's #4, #29, #17, ...

........................................................................
.............................. CYCLE    3 ..............................
........................................................................
     iter. time                 ...        0 min,  0.001 sec
 * total energy  :    -6.2279723 Eh     change       -0.2250351E-02 Eh
   gradient norm :     0.0196467 Eh/α   predicted    -0.2026236E-02 (  -9.96%)
   displ. norm   :     0.0344708 α      lambda       -0.3221465E-03
   maximum displ.:     0.0120366 α      in ANC's #29, #3, #4, ...

........................................................................
.............................. CYCLE    4 ..............................
........................................................................
     iter. time                 ...        0 min,  0.001 sec
 * total energy  :    -6.2281972 Eh     change       -0.2249543E-03 Eh
   gradient norm :     0.0100534 Eh/α   predicted    -0.1612657E-03 ( -28.31%)
   displ. norm   :     0.0346754 α      lambda       -0.1543371E-03
   maximum displ.:     0.0152210 α      in ANC's #3, #29, #23, ...

........................................................................
.............................. CYCLE    5 ..............................
........................................................................
     iter. time                 ...        0 min,  0.001 sec
 * total energy  :    -6.2282944 Eh     change       -0.9720696E-04 Eh
   gradient norm :     0.0043818 Eh/α   predicted    -0.7727814E-04 ( -20.50%)
   displ. norm   :     0.0237870 α      lambda       -0.4534030E-04
   maximum displ.:     0.0102642 α      in ANC's #3, #23, #5, ...

........................................................................
.............................. CYCLE    6 ..............................
........................................................................
     iter. time                 ...        0 min,  0.001 sec
 * total energy  :    -6.2283278 Eh     change       -0.3337770E-04 Eh
   gradient norm :     0.0043137 Eh/α   predicted    -0.2269239E-04 ( -32.01%)
   displ. norm   :     0.0286552 α      lambda       -0.3855513E-04
   maximum displ.:     0.0113608 α      in ANC's #3, #1, #22, ...

........................................................................
.............................. CYCLE    7 ..............................
........................................................................
     iter. time                 ...        0 min,  0.001 sec
 * total energy  :    -6.2283526 Eh     change       -0.2483774E-04 Eh
   gradient norm :     0.0034964 Eh/α   predicted    -0.1930104E-04 ( -22.29%)
   displ. norm   :     0.0134269 α      lambda       -0.1177961E-04
   maximum displ.:     0.0063168 α      in ANC's #1, #4, #22, ...

........................................................................
.............................. CYCLE    8 ..............................
........................................................................
     iter. time                 ...        0 min,  0.001 sec
 * total energy  :    -6.2283606 Eh     change       -0.8002074E-05 Eh
   gradient norm :     0.0019822 Eh/α   predicted    -0.5930346E-05 ( -25.89%)
   displ. norm   :     0.0108928 α      lambda       -0.4911186E-05
   maximum displ.:     0.0066668 α      in ANC's #1, #4, #34, ...

........................................................................
.............................. CYCLE    9 ..............................
........................................................................
     iter. time                 ...        0 min,  0.000 sec
 * total energy  :    -6.2283641 Eh     change       -0.3432950E-05 Eh
   gradient norm :     0.0011586 Eh/α   predicted    -0.2468858E-05 ( -28.08%)
   displ. norm   :     0.0112185 α      lambda        0.6014386E-05
   maximum displ.:     0.0069424 α      in ANC's #1, #4, #34, ...

........................................................................
.............................. CYCLE   10 ..............................
........................................................................
     iter. time                 ...        0 min,  0.000 sec
 * total energy  :    -6.2283596 Eh     change        0.4504454E-05 Eh
   gradient norm :     0.0032259 Eh/α   predicted     0.3004985E-05 ( -33.29%)
   displ. norm   :     0.0077476 α      lambda       -0.6756156E-05
   maximum displ.:     0.0039544 α      in ANC's #1, #4, #22, ...

   *** FAILED TO CONVERGE GEOMETRY OPTIMIZATION IN 10 ITERATIONS ***


 ANCopt (total)                0 d,  0 h,  0 min,  0.008 sec
 optimizer setup                ...        0 min,  0.000 sec (  0.693%)
 model hessian                  ...        0 min,  0.000 sec (  2.813%)
 ANC generation                 ...        0 min,  0.001 sec (  7.611%)
 coordinate transformation      ...        0 min,  0.000 sec (  0.461%)
 single point calculation       ...        0 min,  0.006 sec ( 76.257%)
 optimization log               ...        0 min,  0.000 sec (  5.889%)
 hessian update                 ...        0 min,  0.000 sec (  0.759%)
 rational function              ...        0 min,  0.000 sec (  3.183%)

================
 final structure:
================
ATOM      1  C   GLY A  12      -0.669  -9.019  -2.779  1.00  0.00           C  
ATOM      2  O   GLY A  12      -1.686  -8.555  -2.348  1.00  0.00           O  
ATOM      3  N   GLY A  13       0.113  -8.385  -3.731  1.00  0.00           N  
ATOM      4  CA  GLY A  13       1.312  -8.904  -4.380  1.00  0.00           C  
ATOM      5  C   GLY A  13       1.451  -8.353  -5.776  1.00  0.00           C  
ATOM      6  O   GLY A  13       0.459  -8.072  -6.417  1.00  0.00           O  
ATOM      7  H   GLY A  13      -0.219  -7.512  -4.144  1.00  0.00           H  
ATOM      8  HA2 GLY A  13       2.183  -8.656  -3.775  1.00  0.00           H  
ATOM      9  HA3 GLY A  13       1.241  -9.994  -4.447  1.00  0.00           H  
ATOM     10  N   GLY A  14       2.729  -8.230  -6.287  1.00  0.00           N  
ATOM     11  CA  GLY A  14       2.995  -7.603  -7.571  1.00  0.00           C  
ATOM     12  C   GLY A  14       3.228  -6.124  -7.420  1.00  0.00           C  
ATOM     13  O   GLY A  14       2.390  -5.482  -6.819  1.00  0.00           O  
ATOM     14  H   GLY A  14       3.551  -8.394  -5.704  1.00  0.00           H  
ATOM     15  HA2 GLY A  14       3.820  -8.107  -8.074  1.00  0.00           H  
ATOM     16  HA3 GLY A  14       2.100  -7.750  -8.190  1.00  0.00           H  
ATOM     17  N   GLY A  15       4.329  -5.457  -7.945  1.00  0.00           N  
ATOM     18  CA  GLY A  15       5.425  -6.004  -8.756  1.00  0.00           C  
ATOM     19  C   GLY A  15       5.304  -5.626 -10.205  1.00  0.00           C  
ATOM     20  O   GLY A  15       4.416  -6.105 -10.876  1.00  0.00           O  
ATOM     21  H   GLY A  15       4.331  -4.441  -7.895  1.00  0.00           H  
ATOM     22  HA2 GLY A  15       6.377  -5.651  -8.346  1.00  0.00           H  
ATOM     23  HA3 GLY A  15       5.444  -7.091  -8.669  1.00  0.00           H  
ATOM     24  N   GLY A  16       6.231  -4.748 -10.720  1.00  0.00           N  
ATOM     25  CA  GLY A  16       6.174  -4.253 -12.090  1.00  0.00           C  
ATOM     26  C   GLY A  16       5.765  -2.803 -12.138  1.00  0.00           C  
ATOM     27  O   GLY A  16       4.764  -2.483 -11.549  1.00  0.00           O  
ATOM     28  H   GLY A  16       6.894  -4.267 -10.116  1.00  0.00           H  
ATOM     29  HA2 GLY A  16       7.139  -4.426 -12.576  1.00  0.00           H  
ATOM     30  HA3 GLY A  16       5.426  -4.850 -12.623  1.00  0.00           H  
ATOM     31  N   GLY A  17       6.534  -1.849 -12.890  1.00  0.00           N  
ATOM     32  CA  GLY A  17       7.731  -2.024 -13.573  1.00  0.00           C  
ATOM     33  H   GLY A  17       6.115  -0.910 -12.996  1.00  0.00           H  
ATOM     34  HA2 GLY A  17       8.575  -2.092 -12.879  1.00  0.00           H  
ATOM     35  HA3 GLY A  17       7.723  -2.995 -14.092  1.00  0.00           H  
END

 Bond Distances (Angstroems)
 ---------------------------
C1-O2=1.1981         C1-N3=1.3857         O2-C1=1.1981         N3-C1=1.3857         N3-C4=1.4590         N3-H7=1.0216         
C4-N3=1.4590         C4-C5=1.5068         C4-H8=1.0893         C4-H9=1.0938         C5-C4=1.5068         C5-O6=1.2139         
C5-N10=1.3829        O6-C5=1.2139         H7-N3=1.0216         H8-C4=1.0893         H9-C4=1.0938         N10-C5=1.3829        
N10-C11=1.4532       N10-H14=1.0206       C11-N10=1.4532       C11-C12=1.5050       C11-H15=1.0901       C11-H16=1.0981       
C12-C11=1.5050       C12-O13=1.2143       C12-N17=1.3902       O13-C12=1.2143       H14-N10=1.0206       H15-C11=1.0901       
H16-C11=1.0981       N17-C12=1.3902       N17-C18=1.4691       N17-H21=1.0167       C18-N17=1.4691       C18-C19=1.5023       
C18-H22=1.0949       C18-H23=1.0911       C19-C18=1.5023       C19-O20=1.2114       C19-N24=1.3763       O20-C19=1.2114       
H21-N17=1.0167       H22-C18=1.0949       H23-C18=1.0911       N24-C19=1.3763       N24-C25=1.4571       N24-H28=1.0187       
C25-N24=1.4571       C25-C26=1.5081       C25-H29=1.0943       C25-H30=1.0956       C26-C25=1.5081       C26-O27=1.2047       
C26-N31=1.4371       O27-C26=1.2047       H28-N24=1.0187       H29-C25=1.0943       H30-C25=1.0956       N31-C26=1.4371       
N31-C32=1.3889       N31-H33=1.0342       C32-N31=1.3889       C32-H34=1.0959       C32-H35=1.1012       H33-N31=1.0342       
H34-C32=1.0959       H35-C32=1.1012       
 C  H  Rav=1.0944 sigma=0.0035  Rmin=1.0893  Rmax=1.1012    10
 C  C  Rav=1.5056 sigma=0.0022  Rmin=1.5023  Rmax=1.5081     4
 N  H  Rav=1.0224 sigma=0.0062  Rmin=1.0167  Rmax=1.0342     5
 N  C  Rav=1.4200 sigma=0.0361  Rmin=1.3763  Rmax=1.4691    10
 O  C  Rav=1.2085 sigma=0.0062  Rmin=1.1981  Rmax=1.2143     5

 selected bond angles (degree)
 --------------------
N3-C1-O2=123.34                C4-N3-C1=127.38                H7-N3-C1=118.99                H7-N3-C4=113.06                
C5-C4-N3=110.94                H8-C4-N3=109.20                H8-C4-C5=110.95                H9-C4-N3=109.15                
H9-C4-C5=108.26                H9-C4-H8=108.28                O6-C5-C4=119.96                N10-C5-C4=117.38               
N10-C5-O6=122.63               C11-N10-C5=122.28              H14-N10-C5=121.26              H14-N10-C11=115.27             

 selected dihedral angles (degree)
 ---------------------------------
C4-N3-C1-O2=184.47            H7-N3-C1-O2=355.19            C5-C4-N3-C1=149.32            C5-C4-N3-H7=338.13            
H8-C4-N3-C1=271.91            H8-C4-N3-H7=100.72            H9-C4-N3-C1= 30.10            H9-C4-N3-H7=218.91            
O6-C5-C4-N3=329.44            O6-C5-C4-H8=207.87            O6-C5-C4-H9= 89.18            N10-C5-C4-N3=151.46           
N10-C5-C4-H8= 29.90           N10-C5-C4-H9=271.21           C11-N10-C5-C4=185.59          C11-N10-C5-O6=  7.67          
H14-N10-C5-C4=352.50          H14-N10-C5-O6=174.58          
           -------------------------------------------------
          |                Final Singlepoint                |
           -------------------------------------------------
         :::::::::::::::::::::::::::::::::::::::::::::::::::::
         ::                     SUMMARY                     ::
         :::::::::::::::::::::::::::::::::::::::::::::::::::::
         :: total energy              -6.228364295356 Eh    ::
         :: total w/o Gsolv           -6.186903026416 Eh    ::
         :: total w/o Gsasa/hb        -6.223607987018 Eh    ::
         :: gradient norm              0.001342415245 Eh/a0 ::
         ::.................................................::
         :: bond energy               -6.285923783163 Eh    ::
         :: angle energy               0.031521733673 Eh    ::
         :: torsion energy             0.021344945091 Eh    ::
         :: repulsion energy           0.375022010527 Eh    ::
         :: electrostat energy        -0.304269359478 Eh    ::
         :: dispersion energy         -0.022703051758 Eh    ::
         :: HB energy                 -0.000425274431 Eh    ::
         :: XB energy                  0.000000000000 Eh    ::
         :: bonded atm energy         -0.005989387833 Eh    ::
         :: external energy            0.000000000000 Eh    ::
         :: -> Gsolv                  -0.041461268940 Eh    ::
         ::    -> Gborn               -0.036704960601 Eh    ::
         ::    -> Gsasa                0.009976499329 Eh    ::
         ::    -> Ghb                 -0.015097746922 Eh    ::
         ::    -> Gshift               0.000364939255 Eh    ::
         :: add. restraining           0.004519140956 Eh    ::
         :: total charge               0.000000000000 e     ::
         ::.................................................::
         :: atomisation energy         0.000000000000 Eh    ::
         :::::::::::::::::::::::::::::::::::::::::::::::::::::

           -------------------------------------------------
          |                Property Printout                |
           -------------------------------------------------
           -------------------------------------------------
          |                Geometry Summary                 |
           -------------------------------------------------

      molecular mass/u    :      285.2570109
   center of mass at/Å    :        3.4389651      -5.9935951      -8.2142318
  moments of inertia/u·Å² :        0.3750160E+03   0.6428263E+04   0.6579683E+04
rotational constants/cm⁻¹ :        0.4495177E-01   0.2622424E-02   0.2562074E-02

 * 27 selected distances

     #   Z          #   Z                                           value/Å
     3   7  N       4   6  C                                      1.4590318
     5   6  C       6   8  O                                      1.2139354
     3   7  N       7   1  H                                      1.0215688
     4   6  C       8   1  H                                      1.0892797
     4   6  C       9   1  H                                      1.0937739
     5   6  C      10   7  N                                      1.3829455
    10   7  N      11   6  C                                      1.4532158
    12   6  C      13   8  O                                      1.2142532
    10   7  N      14   1  H                                      1.0206302
    11   6  C      15   1  H                                      1.0901118
    11   6  C      16   1  H                                      1.0981361
    12   6  C      17   7  N                                      1.3902094
    17   7  N      18   6  C                                      1.4691124 (max)
    19   6  C      20   8  O                                      1.2114451
    17   7  N      21   1  H                                      1.0166634 (min)
    18   6  C      22   1  H                                      1.0948840
    18   6  C      23   1  H                                      1.0911390
    19   6  C      24   7  N                                      1.3763321
    24   7  N      25   6  C                                      1.4571397
    26   6  C      27   8  O                                      1.2047080
    24   7  N      28   1  H                                      1.0187287
    25   6  C      29   1  H                                      1.0943280
    25   6  C      30   1  H                                      1.0956314
    31   7  N      32   6  C                                      1.3889297
    31   7  N      33   1  H                                      1.0342177
    32   6  C      34   1  H                                      1.0959389
    32   6  C      35   1  H                                      1.1012207

 * 4 distinct bonds (by element types)

   Z      Z             #   av. dist./Å        max./Å        min./Å
   1 H    6 C          10     1.0944444     1.1012207     1.0892797
   1 H    7 N           5     1.0223617     1.0342177     1.0166634
   6 C    7 N           8     1.4221146     1.4691124     1.3763321
   6 C    8 O           4     1.2110854     1.2142532     1.2047080


optimized geometry written to: xtbopt.pdb


           -------------------------------------------------
          | TOTAL ENERGY               -6.228364295356 Eh   |
          | GRADIENT NORM               0.001342415245 Eh/α |
           -------------------------------------------------
########################################################################
[WARNING] Runtime exception occurred
-1- gfnff_setup: Could not read topology file.
########################################################################

------------------------------------------------------------------------
 unit  open   action     filename
   10 false : read       xtb_settings.inp
   10 false : read       substructure_3.pdb
   10 false : read       xtb_settings.inp
   10 false : written    gfnff_topo
   10 false : written    gfnff_adjacency
   10 false : written    gfnff_charges
   10 false : deleted    .xtboptok
   10 false : replaced   xtbopt.log
   11 false : created    .xtboptok
   11 false : replaced   gfnff_charges
   10 false : replaced   xtbopt.pdb

------------------------------------------------------------------------
 * finished run on 2025/05/27 at 09:37:31.551     
------------------------------------------------------------------------
 total:
 * wall-time:     0 d,  0 h,  0 min,  0.013 sec
 *  cpu-time:     0 d,  0 h,  0 min,  0.013 sec
 * ratio c/w:     0.999 speedup
 SCF:
 * wall-time:     0 d,  0 h,  0 min,  0.001 sec
 *  cpu-time:     0 d,  0 h,  0 min,  0.001 sec
 * ratio c/w:     0.999 speedup
 ANC optimizer:
 * wall-time:     0 d,  0 h,  0 min,  0.009 sec
 *  cpu-time:     0 d,  0 h,  0 min,  0.009 sec
 * ratio c/w:     0.998 speedup

