      -----------------------------------------------------------      
     |                   =====================                   |     
     |                           x T B                           |     
     |                   =====================                   |     
     |                         S. Grimme                         |     
     |          Mulliken Center for Theoretical Chemistry        |     
     |                    University of Bonn                     |     
      -----------------------------------------------------------      

   * xtb version 6.6.1 (8d0f1dd) compiled by 'conda@1efc2f54142f' on 2023-08-01

   xtb is free software: you can redistribute it and/or modify it under
   the terms of the GNU Lesser General Public License as published by
   the Free Software Foundation, either version 3 of the License, or
   (at your option) any later version.
   
   xtb is distributed in the hope that it will be useful,
   but WITHOUT ANY WARRANTY; without even the implied warranty of
   MERCHANTABILITY or FITNESS FOR A PARTICULAR PURPOSE.  See the
   GNU Lesser General Public License for more details.
   
   Cite this work as:
   * C. Bannwarth, E. Caldeweyher, S. Ehlert, A. Hansen, P. Pracht,
     J. Seibert, S. Spicher, S. Grimme, WIREs Comput. Mol. Sci., 2020, 11,
     e01493. DOI: 10.1002/wcms.1493
   
   for GFN2-xTB:
   * C. Bannwarth, S. Ehlert and S. Grimme., J. Chem. Theory Comput., 2019,
     15, 1652-1671. DOI: 10.1021/acs.jctc.8b01176
   for GFN1-xTB:
   * S. Grimme, C. Bannwarth, P. Shushkov, J. Chem. Theory Comput., 2017,
     13, 1989-2009. DOI: 10.1021/acs.jctc.7b00118
   for GFN0-xTB:
   * P. Pracht, E. Caldeweyher, S. Ehlert, S. Grimme, ChemRxiv, 2019, preprint.
     DOI: 10.26434/chemrxiv.8326202.v1
   for GFN-FF:
   * S. Spicher and S. Grimme, Angew. Chem. Int. Ed., 2020, 59, 15665-15673.
     DOI: 10.1002/anie.202004239
   
   for ALPB and GBSA implicit solvation:
   * S. Ehlert, M. Stahn, S. Spicher, S. Grimme, J. Chem. Theory Comput.,
     2021, 17, 4250-4261. DOI: 10.1021/acs.jctc.1c00471
   
   for DFT-D4:
   * E. Caldeweyher, C. Bannwarth and S. Grimme, J. Chem. Phys., 2017,
     147, 034112. DOI: 10.1063/1.4993215
   * E. Caldeweyher, S. Ehlert, A. Hansen, H. Neugebauer, S. Spicher,
     C. Bannwarth and S. Grimme, J. Chem. Phys., 2019, 150, 154122.
     DOI: 10.1063/1.5090222
   * E. Caldeweyher, J.-M. Mewes, S. Ehlert and S. Grimme, Phys. Chem. Chem. Phys.
     2020, 22, 8499-8512. DOI: 10.1039/D0CP00502A
   
   for sTDA-xTB:
   * S. Grimme and C. Bannwarth, J. Chem. Phys., 2016, 145, 054103.
     DOI: 10.1063/1.4959605
   
   in the mass-spec context:
   * V. Asgeirsson, C. Bauer and S. Grimme, Chem. Sci., 2017, 8, 4879.
     DOI: 10.1039/c7sc00601b
   * J. Koopman and S. Grimme, ACS Omega 2019, 4, 12, 15120-15133.
     DOI: 10.1021/acsomega.9b02011
   
   for metadynamics refer to:
   * S. Grimme, J. Chem. Theory Comput., 2019, 155, 2847-2862
     DOI: 10.1021/acs.jctc.9b00143
   
   for SPH calculations refer to:
   * S. Spicher and S. Grimme, J. Chem. Theory Comput., 2021, 17, 1701-1714
     DOI: 10.1021/acs.jctc.0c01306
   
   with help from (in alphabetical order)
   P. Atkinson, C. Bannwarth, F. Bohle, G. Brandenburg, E. Caldeweyher
   M. Checinski, S. Dohm, S. Ehlert, S. Ehrlich, I. Gerasimov, C. Hölzer
   A. Katbashev, J. Koopman, C. Lavigne, S. Lehtola, F. März, M. Müller,
   F. Musil, H. Neugebauer, J. Pisarek, C. Plett, P. Pracht, F. Pultar,
   J. Seibert, P. Shushkov, S. Spicher, M. Stahn, M. Steiner, T. Strunk,
   J. Stückrath, T. Rose, and J. Unsleber
   
 * started run on 2025/05/27 at 09:37:52.508     

           -------------------------------------------------
          |                Calculation Setup                |
           -------------------------------------------------

          program call               : xtb substructure_54.pdb --gfnff --input xtb_settings.inp --opt vtight --alpb water --verbose
          coordinate file            : substructure_54.pdb
          xtbhome directory          : /home/dargen3
          path for xtb               : /home/dargen3
          xcontrol input file        : xtb_settings.inp
          omp threads                :                     1

$$$$$$$$$$$$$$$$$$$$$$$$$$$$$$$$$$$$$$$$$$$$$$$$$$$$$$$$$$$$$$$$$$$$$$$$
 CONSTRAINTS & SCANS: DEBUG SECTION
$$$$$$$$$$$$$$$$$$$$$$$$$$$$$$$$$$$$$$$$$$$$$$$$$$$$$$$$$$$$$$$$$$$$$$$$
   ID    Z sym.   atoms
    1    6  C     1, 4, 5, 11, 12, 18, 19, 25, 26, 32
    2    8  O     2, 6, 13, 20, 27
    3    7  N     3, 10, 17, 24, 31
    4    1  H     7-9, 14-16, 21-23, 28-30, 33-35
> constrain
-> atoms: 1, 2, 3, 4, 5, 6, 7, 8, 9, 10, 11, 12, 13, 14, 15, 16, 18, 24, 25, 26, 27, 28, 29, 30, 31, 32, 33, 34, 35
--> 1: 1
--> 2: 2
--> 3: 3
--> 4: 4
--> 5: 5
--> 6: 6
--> 7: 7
--> 8: 8
--> 9: 9
--> 10: 10
--> 11: 11
--> 12: 12
--> 13: 13
--> 14: 14
--> 15: 15
--> 16: 16
--> 17: 18
--> 18: 24
--> 19: 25
--> 20: 26
--> 21: 27
--> 22: 28
--> 23: 29
--> 24: 30
--> 25: 31
--> 26: 32
--> 27: 33
--> 28: 34
--> 29: 35
-> force constant=1.0
$$$$$$$$$$$$$$$$$$$$$$$$$$$$$$$$$$$$$$$$$$$$$$$$$$$$$$$$$$$$$$$$$$$$$$$$
           -------------------------------------------------
          |                   Constraints                   |
           -------------------------------------------------

 * 29 constrained atom positions
   positions refering to input geometry

     #   Z                                   position/Å      displ./Å
     1   6 C     -0.7890001    -9.1500008    -2.9820003     0.0000000
     2   8 O     -1.8660002    -8.6950008    -2.6570002     0.0000000
     3   7 N      0.0070000    -8.4790008    -3.8910004     0.0000000
     4   6 C      1.3240001    -8.8870008    -4.3620004     0.0000000
     5   6 C      1.5290001    -8.4980008    -5.8090005     0.0000000
     6   8 O      0.5950001    -8.5480008    -6.5800006     0.0000000
     7   1 H     -0.3610000    -7.6520007    -4.3530004     0.0000000
     8   1 H      2.0900002    -8.4730008    -3.7300003     0.0000000
     9   1 H      1.3940001    -9.9900009    -4.3140004     0.0000000
    10   7 N      2.7860003    -8.1070008    -6.2210006     0.0000000
    11   6 C      3.0050003    -7.6070007    -7.5660007     0.0000000
    12   6 C      3.1560003    -6.1010006    -7.5620007     0.0000000
    13   8 O      2.2440002    -5.4580005    -7.0810007     0.0000000
    14   1 H      3.5230003    -7.8950007    -5.5480005     0.0000000
    15   1 H      3.8580004    -8.1090008    -8.0150007     0.0000000
    16   1 H      2.1200002    -7.8640007    -8.1550008     0.0000000
    18   6 C      5.4280005    -5.9890006    -8.7440008     0.0000000
    24   7 N      6.2840006    -4.7240004   -10.7110010     0.0000000
    25   6 C      6.1780006    -4.2520004   -12.0880011     0.0000000
    26   6 C      5.8140005    -2.7850003   -12.1100011     0.0000000
    27   8 O      4.8550005    -2.4370002   -11.4510011     0.0000000
    28   1 H      6.7920006    -4.1030004   -10.0800009     0.0000000
    29   1 H      7.1230007    -4.4380004   -12.6020012     0.0000000
    30   1 H      5.3980005    -4.8290004   -12.5740012     0.0000000
    31   7 N      6.5100006    -1.8420002   -12.8500012     0.0000000
    32   6 C      7.7600007    -2.0220002   -13.5740013     0.0000000
    33   1 H      6.2160006    -0.8640001   -12.8060012     0.0000000
    34   1 H      8.5360008    -2.3440002   -12.8690012     0.0000000
    35   1 H      7.6260007    -2.8290003   -14.3130013     0.0000000

     applying 406 atom pairwise harmonic potentials
       applied force constant per pair:     0.0357143
     effective force constant per atom:     1.0000000
         constraining energy/grad norm:     0.0000000     0.0000000

     total constraint energy/grad norm:     0.0000000     0.0000000

          charge from pdb residues: 0

          entering GFN-FF setup routine... 35

          ==================== Thresholds ====================
          CN  :   150.00000
          rep :   500.00000
          disp:  2500.00000
          HB1 :   250.00000
          HB2 :   450.00000

          Pauling EN used:
          Z : 1  EN :  2.20
          Z : 6  EN :  2.55
          Z : 7  EN :  3.04
          Z : 8  EN :  3.44
          electric field strengths (au): 0.000

           ------------------------------------------------- 
          |           Force Field Initialization            |
           ------------------------------------------------- 

          distances ...
          ----------------------------------------
          generating topology and atomic info file ...
          pair mat ...
          computing topology distances matrix with Floyd-Warshall algo ...
          making topology EEQ charges ...
          #fragments for EEQ constrain from pdb file: 6
          ----------------------------------------
          generating topology and atomic info file ...
          pair mat ...
          computing topology distances matrix with Floyd-Warshall algo ...
          making topology EEQ charges ...
          #fragments for EEQ constrain from pdb file: 6
          rings ...
          # BATM   270
          # H in HB   15
          doing iterative Hueckel for 5 subsystem(s) ...
          iterative Hueckel run to get P ...
Hueckel system :  1 charge :   0 ndim/Nel :    3    3   eps(HOMO/LUMO)   -0.953512   -0.953512
Hueckel system :  2 charge :   0 ndim/Nel :    3    4   eps(HOMO/LUMO)   -0.911362   -0.911362
Hueckel system :  3 charge :   0 ndim/Nel :    3    4   eps(HOMO/LUMO)   -0.911922   -0.911922
Hueckel system :  4 charge :   0 ndim/Nel :    3    4   eps(HOMO/LUMO)   -0.910012   -0.910012
Hueckel system :  5 charge :   0 ndim/Nel :    4    5   eps(HOMO/LUMO)    1.305315    1.305315
WARNING: probably wrong pi occupation for system 5. Second attempt with Nel=Nel-1!
 at,nb,topo%hyb,Npiel:          26  C             3           2           1
 at,nb,topo%hyb,Npiel:          27  O             1           2           1
 at,nb,topo%hyb,Npiel:          31  N             3           3           2
 at,nb,topo%hyb,Npiel:          32  C             3           2           1

          eigenvalues
 #    :           1          2          3          4
 occ. :        2.000      1.987      0.013      0.000
 eps  :        -4.349     -2.183      1.305      3.389
Hueckel system :  5 charge :   0 ndim/Nel :    4    4   eps(HOMO/LUMO)   -2.182828    1.305315

  atom   neighbors  erfCN metchar sp-hybrid imet pi  qest     coordinates
    1   C      2    1.93   0.00        -2    0    1   0.120   -1.490994  -17.290994   -5.635163
    2   O      1    0.98   0.00         2    0    1  -0.120   -3.526229  -16.431169   -5.021002
    3   N      3    2.79   0.00        -3    0    1  -0.166    0.013228  -16.022988   -7.352924
    4   C      4    3.49   0.00         3    0    0   0.005    2.501997  -16.793996   -8.242985
    5   C      3    2.80   0.00         2    0    1   0.174    2.889391  -16.058893  -10.977419
    6   O      1    0.98   0.00         2    0    1  -0.352    1.124387  -16.153379  -12.434398
    7   H      1    0.98   0.00         0    0    0   0.153   -0.682191  -14.460184   -8.225978
    8   H      1    0.97   0.00         0    0    0   0.093    3.949528  -16.011649   -7.048678
    9   H      1    0.97   0.01         0    0    0   0.093    2.634278  -18.878364   -8.152279
   10   N      3    2.79   0.00        -3    0    1  -0.168    5.264777  -15.320010  -11.755986
   11   C      4    3.49   0.00         3    0    0   0.006    5.678627  -14.375147  -14.297668
   12   C      3    2.79   0.00         2    0    1   0.175    5.963976  -11.529219  -14.290109
   13   O      1    0.98   0.00         2    0    1  -0.352    4.240545  -10.314125  -13.381151
   14   H      1    0.98   0.00         0    0    0   0.154    6.657505  -14.919388  -10.484201
   15   H      1    0.97   0.00         0    0    0   0.092    7.290563  -15.323789  -15.146155
   16   H      1    0.97   0.00         0    0    0   0.092    4.006219  -14.860806  -15.410717
   17   N      3    2.79   0.00        -3    0    1  -0.167    8.044564  -10.259323  -15.248200
   18   C      4    3.49   0.00         3    0    0   0.005   10.257433  -11.317570  -16.523765
   19   C      3    2.79   0.00         2    0    1   0.178   10.230977  -10.729865  -19.314891
   20   O      1    0.98   0.00         2    0    1  -0.353    8.758881  -11.841024  -20.673604
   21   H      1    0.98   0.00         0    0    0   0.151    7.950078   -8.343141  -15.355914
   22   H      1    0.97   0.00         0    0    0   0.093   11.969525  -10.591915  -15.650712
   23   H      1    0.97   0.00         0    0    0   0.093   10.302787  -13.375482  -16.283770
   24   N      3    2.79   0.00        -3    0    1  -0.170   11.875039   -8.927066  -20.240857
   25   C      4    3.49   0.00         3    0    0   0.006   11.674728   -8.035115  -22.843009
   26   C      3    2.79   0.00         2    0    1   0.195   10.986868   -5.262887  -22.884583
   27   O      1    0.98   0.00         2    0    1  -0.357    9.174620   -4.605263  -21.639254
   28   H      1    0.98   0.00         0    0    0   0.147   12.835020   -7.753546  -19.048439
   29   H      1    0.97   0.00         0    0    0   0.090   13.460519   -8.386605  -23.814329
   30   H      1    0.97   0.00         0    0    0   0.090   10.200742   -9.125487  -23.761416
   31   N      3    2.79   0.00         3    0    1  -0.226   12.302117   -3.480876  -24.282981
   32   C      3    2.78   0.00         2    0    1  -0.008   14.664275   -3.821026  -25.651142
   33   H      1    0.98   0.00         0    0    0   0.123   11.746538   -1.632723  -24.199833
   34   H      1    0.97   0.00         0    0    0   0.055   16.130702   -4.429518  -24.318885
   35   H      1    0.97   0.01         0    0    0   0.055   14.411051   -5.346035  -27.047650

molecular fragment  # atoms  topo charge
       1             2            -0.000
       2             7            -0.000
       3             7            -0.000
       4             7             0.000
       5             7             0.000
       6             5            -0.000


          #atoms :   35
          #bonds :   34

 bond atoms        type  in ring    R      R0    piBO    fqq  kbond(tot)  alp
 O  C     2    1      2    0     1.213   0.995   0.799   1.047  -0.252   0.584
 N  C     3    1      2    0     1.382   1.214   0.504   1.047  -0.235   0.524
 C  N     4    3      1    0     1.457   1.325 -99.000   1.033  -0.151   0.496
 C  C     5    4      1    0     1.512   1.332 -99.000   1.013  -0.162   0.475
 O  C     6    5      2    0     1.212   1.031   0.856   1.047  -0.262   0.584
 H  N     7    3      1    0     1.016   0.890 -99.000   1.047  -0.176   0.551
 H  C     8    4      1    0     1.076   0.976 -99.000   1.018  -0.164   0.482
 H  C     9    4      1    0     1.106   0.976 -99.000   1.018  -0.164   0.482
 N  C    10    5      2    0     1.379   1.263   0.503   1.047  -0.234   0.524
 C  N    11   10      1    0     1.452   1.326 -99.000   1.036  -0.151   0.496
 C  C    12   11      1    0     1.514   1.332 -99.000   1.011  -0.162   0.475
 O  C    13   12      2    0     1.215   1.031   0.856   1.047  -0.262   0.584
 H  N    14   10      1    0     1.020   0.890 -99.000   1.047  -0.176   0.551
 H  C    15   11      1    0     1.087   0.977 -99.000   1.016  -0.164   0.482
 H  C    16   11      1    0     1.094   0.976 -99.000   1.016  -0.164   0.482
 N  C    17   12      2    0     1.386   1.263   0.503   1.047  -0.234   0.524
 C  N    18   17      1    0     1.463   1.325 -99.000   1.033  -0.151   0.496
 C  C    19   18      1    0     1.509   1.332 -99.000   1.014  -0.162   0.475
 O  C    20   19      2    0     1.212   1.031   0.856   1.047  -0.262   0.584
 H  N    21   17      1    0     1.017   0.890 -99.000   1.047  -0.176   0.551
 H  C    22   18      1    0     1.087   0.976 -99.000   1.018  -0.164   0.482
 H  C    23   18      1    0     1.097   0.976 -99.000   1.018  -0.164   0.482
 N  C    24   19      2    0     1.381   1.263   0.504   1.047  -0.234   0.524
 C  N    25   24      1    0     1.459   1.326 -99.000   1.034  -0.151   0.496
 C  C    26   25      1    0     1.512   1.332 -99.000   1.011  -0.162   0.475
 O  C    27   26      2    0     1.214   1.018   0.930   1.047  -0.274   0.584
 H  N    28   24      1    0     1.021   0.890 -99.000   1.047  -0.176   0.551
 H  C    29   25      1    0     1.092   0.976 -99.000   1.018  -0.164   0.482
 H  C    30   25      1    0     1.085   0.977 -99.000   1.018  -0.164   0.482
 N  C    31   26      2    0     1.386   1.291   0.346   1.047  -0.203   0.524
 C  N    32   31      2    0     1.456   1.189   0.906   1.006  -0.302   0.524
 H  N    33   31      1    0     1.022   0.890 -99.000   1.047  -0.176   0.551
 H  C    34   32      1    0     1.097   0.949 -99.000   1.029  -0.179   0.490
 H  C    35   32      1    0     1.102   0.949 -99.000   1.029  -0.179   0.490
          #angl  :   55

 angle atoms        phi0    phi      FC  pi rings
    1    3    2   145.000 120.349   0.082 F   0
    3    4    1   115.000 126.675   0.411 F   0
    3    7    1   115.000 119.047   0.335 F   0
    3    7    4   104.000 114.094   0.182 F   0
    4    5    3   109.500 111.088   0.307 F   0
    4    8    3   109.500 110.237   0.253 F   0
    4    8    5   109.500 111.503   0.251 F   0
    4    9    3   109.500 108.807   0.253 F   0
    4    9    5   109.500 106.822   0.251 F   0
    4    9    8   108.600 108.247   0.209 F   0
    5    6    4   120.000 119.573   0.178 F   0
    5   10    4   120.000 118.831   0.243 F   0
    5   10    6   120.000 121.593   0.176 F   0
   10   11    5   115.000 120.790   0.409 F   0
   10   14    5   115.000 121.341   0.333 F   0
   10   14   11   104.000 115.508   0.182 F   0
   11   12   10   109.500 110.815   0.307 F   0
   11   15   10   109.500 110.006   0.253 F   0
   11   15   12   109.500 112.481   0.252 F   0
   11   16   10   109.500 107.216   0.253 F   0
   11   16   12   109.500 108.419   0.252 F   0
   11   16   15   108.600 107.702   0.209 F   0
   12   13   11   120.000 116.916   0.178 F   0
   12   17   11   120.000 124.107   0.243 F   0
   12   17   13   120.000 118.977   0.176 F   0
   17   18   12   115.000 128.245   0.409 F   0
   17   21   12   115.000 117.708   0.333 F   0
   17   21   18   104.000 113.278   0.182 F   0
   18   19   17   109.500 111.418   0.307 F   0
   18   22   17   109.500 109.620   0.253 F   0
   18   22   19   109.500 110.537   0.251 F   0
   18   23   17   109.500 110.132   0.253 F   0
   18   23   19   109.500 108.549   0.251 F   0
   18   23   22   108.600 106.459   0.209 F   0
   19   20   18   120.000 119.103   0.178 F   0
   19   24   18   120.000 118.926   0.242 F   0
   19   24   20   120.000 121.969   0.176 F   0
   24   25   19   115.000 120.825   0.409 F   0
   24   28   19   115.000 120.962   0.333 F   0
   24   28   25   104.000 115.001   0.182 F   0
   25   26   24   109.500 110.186   0.307 F   0
   25   29   24   109.500 109.041   0.253 F   0
   25   29   26   109.500 111.526   0.251 F   0
   25   30   24   109.500 107.626   0.253 F   0
   25   30   26   109.500 109.659   0.251 F   0
   25   30   29   108.600 108.708   0.209 F   0
   26   27   25   120.000 117.407   0.177 F   0
   26   31   25   120.000 123.168   0.241 F   0
   26   31   27   120.000 119.421   0.174 F   0
   31   32   26   113.000 127.776   0.042 F   0
   31   33   26   113.000 118.915   0.211 F   0
   31   33   32   113.000 112.749   0.105 F   0
   32   34   31   120.000 108.915   0.204 F   0
   32   35   31   120.000 108.635   0.204 F   0
   32   35   34   120.000 107.577   0.167 F   0
 torsion atoms        nrot   rings    phi0    phi      FC
    3    1    4    2   2      0     180.000 179.083   0.765
    3    1    7    2   2      0     180.000   6.160   1.135
    4    3    5    1   3      0     180.000 145.585   0.024
    4    3    5    7   3      0     180.000  29.395   0.032
    4    3    8    1   3      0     180.000  90.298   0.034
    4    3    8    7   3      0     180.000  94.722   0.045
    4    3    9    1   3      0     180.000  28.263   0.034
    4    3    9    7   3      0     180.000 146.717   0.045
    5    4    6    3   3      0     180.000  35.952   0.066
    5    4    6    8   3      0     180.000 159.346   0.115
    5    4    6    9   3      0     180.000  82.574   0.115
    5    4   10    3   3      0     180.000 144.738   0.041
    5    4   10    8   3      0     180.000  21.343   0.072
    5    4   10    9   3      0     180.000  96.737   0.072
   10    5   11    4   2      0     180.000 174.244   0.615
   10    5   11    6   2      0     180.000   6.460   0.833
   10    5   14    4   2      0     180.000  12.473   0.912
   10    5   14    6   2      0     180.000 168.230   1.236
   11   10   12    5   3      0     180.000 103.707   0.022
   11   10   12   14   3      0     180.000  59.074   0.032
   11   10   15    5   3      0     180.000 131.281   0.032
   11   10   15   14   3      0     180.000  65.939   0.045
   11   10   16    5   3      0     180.000  14.436   0.032
   11   10   16   14   3      0     180.000 177.216   0.045
   12   11   13   10   3      0     180.000  56.617   0.066
   12   11   13   15   3      0     180.000 179.781   0.115
   12   11   13   16   3      0     180.000  60.792   0.115
   12   11   17   10   3      0     180.000 123.448   0.041
   12   11   17   15   3      0     180.000   0.154   0.072
   12   11   17   16   3      0     180.000 119.143   0.072
   17   12   18   11   2      0     180.000   3.106   0.614
   17   12   18   13   2      0     180.000 176.828   0.832
   17   12   21   11   2      0     180.000 172.314   0.911
   17   12   21   13   2      0     180.000   7.621   1.235
   18   17   19   12   3      0     180.000 107.877   0.022
   18   17   19   21   3      0     180.000  61.726   0.032
   18   17   22   12   3      0     180.000 129.447   0.032
   18   17   22   21   3      0     180.000  60.950   0.045
   18   17   23   12   3      0     180.000  12.637   0.032
   18   17   23   21   3      0     180.000 177.760   0.045
   19   18   20   17   3      0     180.000  73.381   0.066
   19   18   20   22   3      0     180.000 164.471   0.115
   19   18   20   23   3      0     180.000  48.059   0.115
   19   18   24   17   3      0     180.000 106.169   0.041
   19   18   24   22   3      0     180.000  15.979   0.072
   19   18   24   23   3      0     180.000 132.392   0.072
   24   19   25   18   2      0     180.000 171.145   0.620
   24   19   25   20   2      0     180.000   8.391   0.840
   24   19   28   18   2      0     180.000  12.404   0.920
   24   19   28   20   2      0     180.000 167.132   1.247
   25   24   26   19   3      0     180.000 115.505   0.022
   25   24   26   28   3      0     180.000  44.431   0.032
   25   24   29   19   3      0     180.000 121.780   0.032
   25   24   29   28   3      0     180.000  78.283   0.045
   25   24   30   19   3      0     180.000   4.026   0.032
   25   24   30   28   3      0     180.000 163.963   0.045
   26   25   27   24   3      0     180.000  51.319   0.066
   26   25   27   29   3      0     180.000 172.562   0.115
   26   25   27   30   3      0     180.000  66.970   0.115
   26   25   31   24   3      0     180.000 129.379   0.041
   26   25   31   29   3      0     180.000   8.136   0.072
   26   25   31   30   3      0     180.000 112.332   0.072
   31   26   32   25   2      0     180.000   8.321   0.343
   31   26   32   27   2      0     180.000 172.390   0.465
   31   26   33   25   2      0     180.000 179.073   0.489
   31   26   33   27   2      0     180.000   1.638   0.663
   32   31   34   26   2      0     180.000  58.902   1.385
   32   31   34   33   2      0     180.000 112.324   1.974
   32   31   35   26   2      0     180.000  57.998   1.385
   32   31   35   33   2      0     180.000 130.776   1.974
 out-of-plane atoms          phi0    phi      FC
    3    7    1    4          0.000   4.203   0.133
    5    6   10    4          0.000  -0.616  23.920
   10   14    5   11          0.000  15.589   0.125
   12   13   17   11          0.000  -0.054  23.974
   17   21   12   18          0.000   8.457   0.130
   19   20   24   18          0.000   0.406  24.122
   24   28   19   25          0.000  18.141   0.116
   26   27   31   25          0.000  -0.596  28.543
   31   33   26   32          0.000  -7.298  -0.052
   32   34   35   31          0.000  56.989   0.552
          #tors  :   80
          #nmol  :   6
          #optfrag :   6

 GFN-FF setup done.

           ------------------------------------------------- 
          |                   G F N - F F                   |
          |          A general generic force-field          |
          |                  Version 1.0.3                  | 
           ------------------------------------------------- 
      * Solvation model:               ALPB
        Solvent                        water
        Parameter file                 internal GFN-FF/ALPB
        Dielectric constant                8.0200E+01
        Reference state                gsolv [1 M gas/solution]
        Free energy shift                  3.6494E-04 Eh       2.2900E-01 kcal/mol
        Temperature                        2.9815E+02 K
        Density                            1.0000E+00 kg/L
        Solvent mass                       1.8000E+01 g/mol
        Interaction kernel             P16
        Born radius scaling (c1)           1.5056E+00
        Born radii integrator          GBOBC
        Born offset                        0.0000E+00 a0       0.0000E+00 AA
        H-bond correction              true
        Ion screening                  false
        Surface tension                    1.0000E-05 Eh       1.5569E+01 dyn/cm
        Grid points                               230 per atom
          Number of HB bonds (bound hydrogen)     332
          Number of HB bonds (unbound hydrogen)   43
          Number of XB bonds                      0

 E+G (total)                   0 d,  0 h,  0 min,  0.001 sec
 distance/D3 list               ...        0 min,  0.000 sec (  0.283%)
 non bonded repulsion           ...        0 min,  0.000 sec (  1.890%)
 dCN                            ...        0 min,  0.000 sec (  3.057%)
 EEQ energy and q               ...        0 min,  0.000 sec (  4.322%)
 D3                             ...        0 min,  0.000 sec (  9.175%)
 EEQ gradient                   ...        0 min,  0.000 sec (  4.245%)
 bonds                          ...        0 min,  0.000 sec (  0.980%)
 bend and torsion               ...        0 min,  0.000 sec (  3.854%)
 bonded ATM                     ...        0 min,  0.000 sec (  1.564%)
 HB/XB (incl list setup)        ...        0 min,  0.000 sec (  8.723%)
 GBSA                           ...        0 min,  0.000 sec ( 63.968%)

         :::::::::::::::::::::::::::::::::::::::::::::::::::::
         ::                     SUMMARY                     ::
         :::::::::::::::::::::::::::::::::::::::::::::::::::::
         :: total energy              -6.222748552050 Eh    ::
         :: total w/o Gsolv           -6.183566828396 Eh    ::
         :: total w/o Gsasa/hb        -6.218021019644 Eh    ::
         :: gradient norm              0.166983255655 Eh/a0 ::
         ::.................................................::
         :: bond energy               -6.271609666666 Eh    ::
         :: angle energy               0.030518940707 Eh    ::
         :: torsion energy             0.020249231468 Eh    ::
         :: repulsion energy           0.375018329894 Eh    ::
         :: electrostat energy        -0.308173676746 Eh    ::
         :: dispersion energy         -0.022705294896 Eh    ::
         :: HB energy                 -0.000516654942 Eh    ::
         :: XB energy                  0.000000000000 Eh    ::
         :: bonded atm energy         -0.006348037215 Eh    ::
         :: external energy            0.000000000000 Eh    ::
         :: -> Gsolv                  -0.039181723654 Eh    ::
         ::    -> Gborn               -0.034454191248 Eh    ::
         ::    -> Gsasa                0.010062047216 Eh    ::
         ::    -> Ghb                 -0.015154518877 Eh    ::
         ::    -> Gshift               0.000364939255 Eh    ::
         :: add. restraining           0.000000000000 Eh    ::
         :: total charge              -0.000000000000 e     ::
         ::.................................................::
         :: atomisation energy         0.000000000000 Eh    ::
         :::::::::::::::::::::::::::::::::::::::::::::::::::::

      ----------------------------------------------------------- 
     |                   =====================                   |
     |                        A N C O P T                        |
     |                   =====================                   |
     |               Approximate Normal Coordinate               |
     |                Rational Function Optimizer                |
      ----------------------------------------------------------- 

          ...................................................
          :                      SETUP                      :
          :.................................................:
          :   optimization level         verytight          :
          :   max. optcycles                    10          :
          :   ANC micro-cycles                  10          :
          :   degrees of freedom                99          :
          :.................................................:
          :   RF solver                   davidson          :
          :   write xtbopt.log                true          :
          :   linear?                        false          :
          :   energy convergence         0.1000000E-06 Eh   :
          :   grad. convergence          0.2000000E-03 Eh/α :
          :   maxmium RF displ.          1.0000000          :
          :   Hlow (freq-cutoff)         0.1000000E-01      :
          :   Hmax (freq-cutoff)         5.0000000          :
          :   S6 in model hess.         20.0000000          :
          ...................................................

generating ANC from model Hessian ...
Using GFN-FF Lindh-Hessian
 Shifting diagonal of input Hessian by    0.0000000000000000     
 Lowest  eigenvalues of input Hessian
    0.000000    0.000000    0.000000    0.000000    0.000000    0.000000
    0.019775    0.021166    0.024381    0.029794    0.051706    0.054479
    0.066331    0.076737    0.083657    0.089975    0.102357    0.116838
 Highest eigenvalues
    3.351362    3.727719    3.749819    4.060463    4.151382    4.212049


........................................................................
.............................. CYCLE    1 ..............................
........................................................................
     iter. time                 ...        0 min,  0.001 sec
 * total energy  :    -6.2227486 Eh     change        0.0000000E+00 Eh
   gradient norm :     0.1669832 Eh/α   predicted     0.0000000E+00 (    NaN%)
   displ. norm   :     0.0839517 α      lambda       -0.1081700E-01
   maximum displ.:     0.0351809 α      in ANC's #42, #5, #89, ...

........................................................................
.............................. CYCLE    2 ..............................
........................................................................
     iter. time                 ...        0 min,  0.001 sec
 * total energy  :    -6.2299992 Eh     change       -0.7250605E-02 Eh
   gradient norm :     0.0621217 Eh/α   predicted    -0.5463069E-02 ( -24.65%)
   displ. norm   :     0.0566255 α      lambda       -0.2709687E-02
   maximum displ.:     0.0152579 α      in ANC's #54, #60, #42, ...

........................................................................
.............................. CYCLE    3 ..............................
........................................................................
     iter. time                 ...        0 min,  0.001 sec
 * total energy  :    -6.2315283 Eh     change       -0.1529114E-02 Eh
   gradient norm :     0.0176373 Eh/α   predicted    -0.1359204E-02 ( -11.11%)
   displ. norm   :     0.0245110 α      lambda       -0.2501616E-03
   maximum displ.:     0.0094816 α      in ANC's #36, #18, #29, ...

........................................................................
.............................. CYCLE    4 ..............................
........................................................................
     iter. time                 ...        0 min,  0.001 sec
 * total energy  :    -6.2317105 Eh     change       -0.1822087E-03 Eh
   gradient norm :     0.0097275 Eh/α   predicted    -0.1307199E-03 ( -28.26%)
   displ. norm   :     0.0228293 α      lambda       -0.1173826E-03
   maximum displ.:     0.0092681 α      in ANC's #36, #18, #29, ...

........................................................................
.............................. CYCLE    5 ..............................
........................................................................
     iter. time                 ...        0 min,  0.001 sec
 * total energy  :    -6.2317815 Eh     change       -0.7104228E-04 Eh
   gradient norm :     0.0037642 Eh/α   predicted    -0.5873506E-04 ( -17.32%)
   displ. norm   :     0.0112684 α      lambda       -0.2316432E-04
   maximum displ.:     0.0052081 α      in ANC's #29, #36, #18, ...

........................................................................
.............................. CYCLE    6 ..............................
........................................................................
     iter. time                 ...        0 min,  0.000 sec
 * total energy  :    -6.2317988 Eh     change       -0.1726545E-04 Eh
   gradient norm :     0.0029093 Eh/α   predicted    -0.1177957E-04 ( -31.77%)
   displ. norm   :     0.0131255 α      lambda       -0.1869531E-04
   maximum displ.:     0.0061668 α      in ANC's #29, #25, #36, ...

........................................................................
.............................. CYCLE    7 ..............................
........................................................................
     iter. time                 ...        0 min,  0.000 sec
 * total energy  :    -6.2318108 Eh     change       -0.1202323E-04 Eh
   gradient norm :     0.0024133 Eh/α   predicted    -0.9359197E-05 ( -22.16%)
   displ. norm   :     0.0066962 α      lambda       -0.5691677E-05
   maximum displ.:     0.0028874 α      in ANC's #29, #25, #22, ...

........................................................................
.............................. CYCLE    8 ..............................
........................................................................
     iter. time                 ...        0 min,  0.000 sec
 * total energy  :    -6.2318148 Eh     change       -0.3941798E-05 Eh
   gradient norm :     0.0015130 Eh/α   predicted    -0.2874762E-05 ( -27.07%)
   displ. norm   :     0.0065330 α      lambda       -0.2656660E-05
   maximum displ.:     0.0022001 α      in ANC's #29, #25, #22, ...

........................................................................
.............................. CYCLE    9 ..............................
........................................................................
     iter. time                 ...        0 min,  0.000 sec
 * total energy  :    -6.2318166 Eh     change       -0.1839665E-05 Eh
   gradient norm :     0.0008391 Eh/α   predicted    -0.1344989E-05 ( -26.89%)
   displ. norm   :     0.0018053 α      lambda       -0.4300391E-06
   maximum displ.:     0.0008243 α      in ANC's #36, #29, #18, ...

........................................................................
.............................. CYCLE   10 ..............................
........................................................................
     iter. time                 ...        0 min,  0.000 sec
 * total energy  :    -6.2318171 Eh     change       -0.4798753E-06 Eh
   gradient norm :     0.0004115 Eh/α   predicted    -0.2403930E-06 ( -49.91%)
   displ. norm   :     0.0018053 α      lambda        0.0000000E+00
   maximum displ.:     0.0008243 α      in ANC's #36, #29, #18, ...

   *** FAILED TO CONVERGE GEOMETRY OPTIMIZATION IN 10 ITERATIONS ***


 ANCopt (total)                0 d,  0 h,  0 min,  0.007 sec
 optimizer setup                ...        0 min,  0.000 sec (  0.810%)
 model hessian                  ...        0 min,  0.000 sec (  3.431%)
 ANC generation                 ...        0 min,  0.001 sec (  9.039%)
 coordinate transformation      ...        0 min,  0.000 sec (  0.449%)
 single point calculation       ...        0 min,  0.005 sec ( 75.308%)
 optimization log               ...        0 min,  0.000 sec (  5.562%)
 hessian update                 ...        0 min,  0.000 sec (  0.647%)
 rational function              ...        0 min,  0.000 sec (  2.587%)

================
 final structure:
================
ATOM      1  C   GLY A  12      -0.783  -9.114  -2.973  1.00  0.00           C  
ATOM      2  O   GLY A  12      -1.869  -8.714  -2.661  1.00  0.00           O  
ATOM      3  N   GLY A  13       0.006  -8.482  -3.887  1.00  0.00           N  
ATOM      4  CA  GLY A  13       1.320  -8.900  -4.372  1.00  0.00           C  
ATOM      5  C   GLY A  13       1.530  -8.498  -5.808  1.00  0.00           C  
ATOM      6  O   GLY A  13       0.596  -8.550  -6.580  1.00  0.00           O  
ATOM      7  H   GLY A  13      -0.363  -7.656  -4.357  1.00  0.00           H  
ATOM      8  HA2 GLY A  13       2.091  -8.472  -3.729  1.00  0.00           H  
ATOM      9  HA3 GLY A  13       1.395  -9.990  -4.310  1.00  0.00           H  
ATOM     10  N   GLY A  14       2.787  -8.108  -6.221  1.00  0.00           N  
ATOM     11  CA  GLY A  14       3.004  -7.601  -7.563  1.00  0.00           C  
ATOM     12  C   GLY A  14       3.155  -6.101  -7.562  1.00  0.00           C  
ATOM     13  O   GLY A  14       2.244  -5.458  -7.080  1.00  0.00           O  
ATOM     14  H   GLY A  14       3.523  -7.895  -5.547  1.00  0.00           H  
ATOM     15  HA2 GLY A  14       3.857  -8.110  -8.016  1.00  0.00           H  
ATOM     16  HA3 GLY A  14       2.120  -7.865  -8.155  1.00  0.00           H  
ATOM     17  N   GLY A  15       4.257  -5.428  -8.070  1.00  0.00           N  
ATOM     18  CA  GLY A  15       5.425  -5.995  -8.751  1.00  0.00           C  
ATOM     19  C   GLY A  15       5.414  -5.678 -10.221  1.00  0.00           C  
ATOM     20  O   GLY A  15       4.636  -6.267 -10.940  1.00  0.00           O  
ATOM     21  H   GLY A  15       4.207  -4.415  -8.128  1.00  0.00           H  
ATOM     22  HA2 GLY A  15       6.334  -5.605  -8.281  1.00  0.00           H  
ATOM     23  HA3 GLY A  15       5.452  -7.078  -8.617  1.00  0.00           H  
ATOM     24  N   GLY A  16       6.284  -4.725 -10.711  1.00  0.00           N  
ATOM     25  CA  GLY A  16       6.178  -4.244 -12.082  1.00  0.00           C  
ATOM     26  C   GLY A  16       5.807  -2.778 -12.103  1.00  0.00           C  
ATOM     27  O   GLY A  16       4.852  -2.437 -11.453  1.00  0.00           O  
ATOM     28  H   GLY A  16       6.793  -4.105 -10.080  1.00  0.00           H  
ATOM     29  HA2 GLY A  16       7.119  -4.440 -12.605  1.00  0.00           H  
ATOM     30  HA3 GLY A  16       5.395  -4.828 -12.575  1.00  0.00           H  
ATOM     31  N   GLY A  17       6.556  -1.846 -12.845  1.00  0.00           N  
ATOM     32  CA  GLY A  17       7.732  -2.015 -13.565  1.00  0.00           C  
ATOM     33  H   GLY A  17       6.205  -0.875 -12.818  1.00  0.00           H  
ATOM     34  HA2 GLY A  17       8.533  -2.348 -12.884  1.00  0.00           H  
ATOM     35  HA3 GLY A  17       7.642  -2.821 -14.302  1.00  0.00           H  
END

 Bond Distances (Angstroems)
 ---------------------------
C1-O2=1.1988         C1-N3=1.3636         O2-C1=1.1988         N3-C1=1.3636         N3-C4=1.4616         N3-H7=1.0195         
C4-N3=1.4616         C4-C5=1.5061         C4-H8=1.0908         C4-H9=1.0933         C5-C4=1.5061         C5-O6=1.2127         
C5-N10=1.3796        O6-C5=1.2127         H7-N3=1.0195         H8-C4=1.0908         H9-C4=1.0933         N10-C5=1.3796        
N10-C11=1.4511       N10-H14=1.0204       C11-N10=1.4511       C11-C12=1.5081       C11-H15=1.0911       C11-H16=1.0962       
C12-C11=1.5081       C12-O13=1.2147       C12-N17=1.3873       O13-C12=1.2147       H14-N10=1.0204       H15-C11=1.0911       
H16-C11=1.0962       N17-C12=1.3873       N17-C18=1.4654       N17-H21=1.0168       C18-N17=1.4654       C18-C19=1.5044       
C18-H22=1.0948       C18-H23=1.0911       C19-C18=1.5044       C19-O20=1.2121       C19-N24=1.3801       O20-C19=1.2121       
H21-N17=1.0168       H22-C18=1.0948       H23-C18=1.0911       N24-C19=1.3801       N24-C25=1.4561       N24-H28=1.0209       
C25-N24=1.4561       C25-C26=1.5127       C25-H29=1.0942       C25-H30=1.0937       C26-C25=1.5127       C26-O27=1.2044       
C26-N31=1.4064       O27-C26=1.2044       H28-N24=1.0209       H29-C25=1.0942       H30-C25=1.0937       N31-C26=1.4064       
N31-C32=1.3904       N31-H33=1.0329       C32-N31=1.3904       C32-H34=1.1022       C32-H35=1.0951       H33-N31=1.0329       
H34-C32=1.1022       H35-C32=1.0951       
 C  H  Rav=1.0943 sigma=0.0032  Rmin=1.0908  Rmax=1.1022    10
 C  C  Rav=1.5078 sigma=0.0031  Rmin=1.5044  Rmax=1.5127     4
 N  H  Rav=1.0221 sigma=0.0056  Rmin=1.0168  Rmax=1.0329     5
 N  C  Rav=1.4142 sigma=0.0378  Rmin=1.3636  Rmax=1.4654    10
 O  C  Rav=1.2085 sigma=0.0060  Rmin=1.1988  Rmax=1.2147     5

 selected bond angles (degree)
 --------------------
N3-C1-O2=122.99                C4-N3-C1=127.58                H7-N3-C1=118.38                H7-N3-C4=113.87                
C5-C4-N3=111.38                H8-C4-N3=109.08                H8-C4-C5=111.02                H9-C4-N3=109.19                
H9-C4-C5=108.07                H9-C4-H8=108.02                O6-C5-C4=119.26                N10-C5-C4=119.18               
N10-C5-O6=121.54               C11-N10-C5=120.81              H14-N10-C5=121.29              H14-N10-C11=115.43             

 selected dihedral angles (degree)
 ---------------------------------
C4-N3-C1-O2=182.17            H7-N3-C1-O2=357.13            C5-C4-N3-C1=147.38            C5-C4-N3-H7=332.23            
H8-C4-N3-C1=270.27            H8-C4-N3-H7= 95.12            H9-C4-N3-C1= 28.11            H9-C4-N3-H7=212.95            
O6-C5-C4-N3=322.74            O6-C5-C4-H8=200.97            O6-C5-C4-H9= 82.68            N10-C5-C4-N3=144.21           
N10-C5-C4-H8= 22.44           N10-C5-C4-H9=264.15           C11-N10-C5-C4=185.45          C11-N10-C5-O6=  6.95          
H14-N10-C5-C4=346.80          H14-N10-C5-O6=168.31          
           -------------------------------------------------
          |                Final Singlepoint                |
           -------------------------------------------------
         :::::::::::::::::::::::::::::::::::::::::::::::::::::
         ::                     SUMMARY                     ::
         :::::::::::::::::::::::::::::::::::::::::::::::::::::
         :: total energy              -6.231817066351 Eh    ::
         :: total w/o Gsolv           -6.192919931763 Eh    ::
         :: total w/o Gsasa/hb        -6.227254488048 Eh    ::
         :: gradient norm              0.000530238171 Eh/a0 ::
         ::.................................................::
         :: bond energy               -6.291781799870 Eh    ::
         :: angle energy               0.030069657713 Eh    ::
         :: torsion energy             0.023055864359 Eh    ::
         :: repulsion energy           0.379996024334 Eh    ::
         :: electrostat energy        -0.308808588437 Eh    ::
         :: dispersion energy         -0.022711791258 Eh    ::
         :: HB energy                 -0.000511000239 Eh    ::
         :: XB energy                  0.000000000000 Eh    ::
         :: bonded atm energy         -0.006132023899 Eh    ::
         :: external energy            0.000000000000 Eh    ::
         :: -> Gsolv                  -0.038897134589 Eh    ::
         ::    -> Gborn               -0.034334556285 Eh    ::
         ::    -> Gsasa                0.010097495372 Eh    ::
         ::    -> Ghb                 -0.015025012931 Eh    ::
         ::    -> Gshift               0.000364939255 Eh    ::
         :: add. restraining           0.003903725535 Eh    ::
         :: total charge               0.000000000000 e     ::
         ::.................................................::
         :: atomisation energy         0.000000000000 Eh    ::
         :::::::::::::::::::::::::::::::::::::::::::::::::::::

           -------------------------------------------------
          |                Property Printout                |
           -------------------------------------------------
           -------------------------------------------------
          |                Geometry Summary                 |
           -------------------------------------------------

      molecular mass/u    :      285.2570109
   center of mass at/Å    :        3.4445966      -6.0373122      -8.2744349
  moments of inertia/u·Å² :        0.3825315E+03   0.6415744E+04   0.6577952E+04
rotational constants/cm⁻¹ :        0.4406861E-01   0.2627541E-02   0.2562748E-02

 * 29 selected distances

     #   Z          #   Z                                           value/Å
     1   6  C       3   7  N                                      1.3635770
     3   7  N       4   6  C                                      1.4616040
     5   6  C       6   8  O                                      1.2126639
     3   7  N       7   1  H                                      1.0195355
     4   6  C       8   1  H                                      1.0908315
     4   6  C       9   1  H                                      1.0933441
     5   6  C      10   7  N                                      1.3795502
    10   7  N      11   6  C                                      1.4510599
    12   6  C      13   8  O                                      1.2146841
    10   7  N      14   1  H                                      1.0204492
    11   6  C      15   1  H                                      1.0911091
    11   6  C      16   1  H                                      1.0961946
    12   6  C      17   7  N                                      1.3873030
    17   7  N      18   6  C                                      1.4654027 (max)
    19   6  C      20   8  O                                      1.2120809
    17   7  N      21   1  H                                      1.0168405 (min)
    18   6  C      22   1  H                                      1.0947695
    18   6  C      23   1  H                                      1.0910684
    19   6  C      24   7  N                                      1.3801380
    24   7  N      25   6  C                                      1.4560544
    26   6  C      27   8  O                                      1.2044292
    24   7  N      28   1  H                                      1.0208871
    25   6  C      29   1  H                                      1.0941533
    25   6  C      30   1  H                                      1.0936653
    26   6  C      31   7  N                                      1.4064301
    31   7  N      32   6  C                                      1.3904309
    31   7  N      33   1  H                                      1.0328905
    32   6  C      34   1  H                                      1.1022376
    32   6  C      35   1  H                                      1.0951360

 * 4 distinct bonds (by element types)

   Z      Z             #   av. dist./Å        max./Å        min./Å
   1 H    6 C          10     1.0942509     1.1022376     1.0908315
   1 H    7 N           5     1.0221206     1.0328905     1.0168405
   6 C    7 N          10     1.4141550     1.4654027     1.3635770
   6 C    8 O           4     1.2109645     1.2146841     1.2044292


optimized geometry written to: xtbopt.pdb


           -------------------------------------------------
          | TOTAL ENERGY               -6.231817066351 Eh   |
          | GRADIENT NORM               0.000530238171 Eh/α |
           -------------------------------------------------
########################################################################
[WARNING] Runtime exception occurred
-1- gfnff_setup: Could not read topology file.
########################################################################

------------------------------------------------------------------------
 unit  open   action     filename
   10 false : read       xtb_settings.inp
   10 false : read       substructure_54.pdb
   10 false : read       xtb_settings.inp
   10 false : written    gfnff_topo
   10 false : written    gfnff_adjacency
   10 false : written    gfnff_charges
   10 false : deleted    .xtboptok
   10 false : replaced   xtbopt.log
   11 false : created    .xtboptok
   11 false : replaced   gfnff_charges
   10 false : replaced   xtbopt.pdb

------------------------------------------------------------------------
 * finished run on 2025/05/27 at 09:37:52.519     
------------------------------------------------------------------------
 total:
 * wall-time:     0 d,  0 h,  0 min,  0.011 sec
 *  cpu-time:     0 d,  0 h,  0 min,  0.011 sec
 * ratio c/w:     1.000 speedup
 SCF:
 * wall-time:     0 d,  0 h,  0 min,  0.001 sec
 *  cpu-time:     0 d,  0 h,  0 min,  0.001 sec
 * ratio c/w:     1.000 speedup
 ANC optimizer:
 * wall-time:     0 d,  0 h,  0 min,  0.008 sec
 *  cpu-time:     0 d,  0 h,  0 min,  0.008 sec
 * ratio c/w:     1.000 speedup

