      -----------------------------------------------------------      
     |                   =====================                   |     
     |                           x T B                           |     
     |                   =====================                   |     
     |                         S. Grimme                         |     
     |          Mulliken Center for Theoretical Chemistry        |     
     |                    University of Bonn                     |     
      -----------------------------------------------------------      

   * xtb version 6.6.1 (8d0f1dd) compiled by 'conda@1efc2f54142f' on 2023-08-01

   xtb is free software: you can redistribute it and/or modify it under
   the terms of the GNU Lesser General Public License as published by
   the Free Software Foundation, either version 3 of the License, or
   (at your option) any later version.
   
   xtb is distributed in the hope that it will be useful,
   but WITHOUT ANY WARRANTY; without even the implied warranty of
   MERCHANTABILITY or FITNESS FOR A PARTICULAR PURPOSE.  See the
   GNU Lesser General Public License for more details.
   
   Cite this work as:
   * C. Bannwarth, E. Caldeweyher, S. Ehlert, A. Hansen, P. Pracht,
     J. Seibert, S. Spicher, S. Grimme, WIREs Comput. Mol. Sci., 2020, 11,
     e01493. DOI: 10.1002/wcms.1493
   
   for GFN2-xTB:
   * C. Bannwarth, S. Ehlert and S. Grimme., J. Chem. Theory Comput., 2019,
     15, 1652-1671. DOI: 10.1021/acs.jctc.8b01176
   for GFN1-xTB:
   * S. Grimme, C. Bannwarth, P. Shushkov, J. Chem. Theory Comput., 2017,
     13, 1989-2009. DOI: 10.1021/acs.jctc.7b00118
   for GFN0-xTB:
   * P. Pracht, E. Caldeweyher, S. Ehlert, S. Grimme, ChemRxiv, 2019, preprint.
     DOI: 10.26434/chemrxiv.8326202.v1
   for GFN-FF:
   * S. Spicher and S. Grimme, Angew. Chem. Int. Ed., 2020, 59, 15665-15673.
     DOI: 10.1002/anie.202004239
   
   for ALPB and GBSA implicit solvation:
   * S. Ehlert, M. Stahn, S. Spicher, S. Grimme, J. Chem. Theory Comput.,
     2021, 17, 4250-4261. DOI: 10.1021/acs.jctc.1c00471
   
   for DFT-D4:
   * E. Caldeweyher, C. Bannwarth and S. Grimme, J. Chem. Phys., 2017,
     147, 034112. DOI: 10.1063/1.4993215
   * E. Caldeweyher, S. Ehlert, A. Hansen, H. Neugebauer, S. Spicher,
     C. Bannwarth and S. Grimme, J. Chem. Phys., 2019, 150, 154122.
     DOI: 10.1063/1.5090222
   * E. Caldeweyher, J.-M. Mewes, S. Ehlert and S. Grimme, Phys. Chem. Chem. Phys.
     2020, 22, 8499-8512. DOI: 10.1039/D0CP00502A
   
   for sTDA-xTB:
   * S. Grimme and C. Bannwarth, J. Chem. Phys., 2016, 145, 054103.
     DOI: 10.1063/1.4959605
   
   in the mass-spec context:
   * V. Asgeirsson, C. Bauer and S. Grimme, Chem. Sci., 2017, 8, 4879.
     DOI: 10.1039/c7sc00601b
   * J. Koopman and S. Grimme, ACS Omega 2019, 4, 12, 15120-15133.
     DOI: 10.1021/acsomega.9b02011
   
   for metadynamics refer to:
   * S. Grimme, J. Chem. Theory Comput., 2019, 155, 2847-2862
     DOI: 10.1021/acs.jctc.9b00143
   
   for SPH calculations refer to:
   * S. Spicher and S. Grimme, J. Chem. Theory Comput., 2021, 17, 1701-1714
     DOI: 10.1021/acs.jctc.0c01306
   
   with help from (in alphabetical order)
   P. Atkinson, C. Bannwarth, F. Bohle, G. Brandenburg, E. Caldeweyher
   M. Checinski, S. Dohm, S. Ehlert, S. Ehrlich, I. Gerasimov, C. Hölzer
   A. Katbashev, J. Koopman, C. Lavigne, S. Lehtola, F. März, M. Müller,
   F. Musil, H. Neugebauer, J. Pisarek, C. Plett, P. Pracht, F. Pultar,
   J. Seibert, P. Shushkov, S. Spicher, M. Stahn, M. Steiner, T. Strunk,
   J. Stückrath, T. Rose, and J. Unsleber
   
 * started run on 2025/05/27 at 09:37:50.213     

           -------------------------------------------------
          |                Calculation Setup                |
           -------------------------------------------------

          program call               : xtb substructure_45.pdb --gfnff --input xtb_settings.inp --opt vtight --alpb water --verbose
          coordinate file            : substructure_45.pdb
          xtbhome directory          : /home/dargen3
          path for xtb               : /home/dargen3
          xcontrol input file        : xtb_settings.inp
          omp threads                :                     1

$$$$$$$$$$$$$$$$$$$$$$$$$$$$$$$$$$$$$$$$$$$$$$$$$$$$$$$$$$$$$$$$$$$$$$$$
 CONSTRAINTS & SCANS: DEBUG SECTION
$$$$$$$$$$$$$$$$$$$$$$$$$$$$$$$$$$$$$$$$$$$$$$$$$$$$$$$$$$$$$$$$$$$$$$$$
   ID    Z sym.   atoms
    1    6  C     1, 4, 5, 11, 12, 18, 19, 25, 26, 32
    2    8  O     2, 6, 13, 20, 27
    3    7  N     3, 10, 17, 24, 31
    4    1  H     7-9, 14-16, 21-23, 28-30, 33-35
> constrain
-> atoms: 1, 2, 3, 4, 5, 6, 7, 8, 9, 10, 11, 12, 13, 14, 15, 16, 18, 24, 25, 26, 27, 28, 29, 30, 31, 32, 33, 34, 35
--> 1: 1
--> 2: 2
--> 3: 3
--> 4: 4
--> 5: 5
--> 6: 6
--> 7: 7
--> 8: 8
--> 9: 9
--> 10: 10
--> 11: 11
--> 12: 12
--> 13: 13
--> 14: 14
--> 15: 15
--> 16: 16
--> 17: 18
--> 18: 24
--> 19: 25
--> 20: 26
--> 21: 27
--> 22: 28
--> 23: 29
--> 24: 30
--> 25: 31
--> 26: 32
--> 27: 33
--> 28: 34
--> 29: 35
-> force constant=1.0
$$$$$$$$$$$$$$$$$$$$$$$$$$$$$$$$$$$$$$$$$$$$$$$$$$$$$$$$$$$$$$$$$$$$$$$$
           -------------------------------------------------
          |                   Constraints                   |
           -------------------------------------------------

 * 29 constrained atom positions
   positions refering to input geometry

     #   Z                                   position/Å      displ./Å
     1   6 C     -0.7810001    -9.1400008    -2.9670003     0.0000000
     2   8 O     -1.8490002    -8.6770008    -2.6270002     0.0000000
     3   7 N      0.0160000    -8.4700008    -3.8770004     0.0000000
     4   6 C      1.3240001    -8.8870008    -4.3620004     0.0000000
     5   6 C      1.5250001    -8.4870008    -5.8070005     0.0000000
     6   8 O      0.5840001    -8.5160008    -6.5710006     0.0000000
     7   1 H     -0.3470000    -7.6330007    -4.3280004     0.0000000
     8   1 H      2.0990002    -8.4880008    -3.7320003     0.0000000
     9   1 H      1.3830001    -9.9910009    -4.3240004     0.0000000
    10   7 N      2.7850003    -8.1140008    -6.2240006     0.0000000
    11   6 C      3.0050003    -7.6070007    -7.5660007     0.0000000
    12   6 C      3.1600003    -6.1020006    -7.5530007     0.0000000
    13   8 O      2.2540002    -5.4590005    -7.0620007     0.0000000
    14   1 H      3.5300003    -7.9190007    -5.5530005     0.0000000
    15   1 H      3.8550004    -8.1090008    -8.0190007     0.0000000
    16   1 H      2.1180002    -7.8580007    -8.1560008     0.0000000
    18   6 C      5.4280005    -5.9890006    -8.7440008     0.0000000
    24   7 N      6.2800006    -4.7190004   -10.7090010     0.0000000
    25   6 C      6.1780006    -4.2520004   -12.0880011     0.0000000
    26   6 C      5.8080005    -2.7870003   -12.1180011     0.0000000
    27   8 O      4.8450004    -2.4400002   -11.4660011     0.0000000
    28   1 H      6.7850006    -4.0960004   -10.0780009     0.0000000
    29   1 H      7.1250007    -4.4360004   -12.5980012     0.0000000
    30   1 H      5.4020005    -4.8340004   -12.5760012     0.0000000
    31   7 N      6.5060006    -1.8440002   -12.8560012     0.0000000
    32   6 C      7.7600007    -2.0220002   -13.5740013     0.0000000
    33   1 H      6.2080006    -0.8660001   -12.8170012     0.0000000
    34   1 H      8.5340008    -2.3410002   -12.8650012     0.0000000
    35   1 H      7.6310007    -2.8310003   -14.3120013     0.0000000

     applying 406 atom pairwise harmonic potentials
       applied force constant per pair:     0.0357143
     effective force constant per atom:     1.0000000
         constraining energy/grad norm:     0.0000000     0.0000000

     total constraint energy/grad norm:     0.0000000     0.0000000

          charge from pdb residues: 0

          entering GFN-FF setup routine... 35

          ==================== Thresholds ====================
          CN  :   150.00000
          rep :   500.00000
          disp:  2500.00000
          HB1 :   250.00000
          HB2 :   450.00000

          Pauling EN used:
          Z : 1  EN :  2.20
          Z : 6  EN :  2.55
          Z : 7  EN :  3.04
          Z : 8  EN :  3.44
          electric field strengths (au): 0.000

           ------------------------------------------------- 
          |           Force Field Initialization            |
           ------------------------------------------------- 

          distances ...
          ----------------------------------------
          generating topology and atomic info file ...
          pair mat ...
          computing topology distances matrix with Floyd-Warshall algo ...
          making topology EEQ charges ...
          #fragments for EEQ constrain from pdb file: 6
          ----------------------------------------
          generating topology and atomic info file ...
          pair mat ...
          computing topology distances matrix with Floyd-Warshall algo ...
          making topology EEQ charges ...
          #fragments for EEQ constrain from pdb file: 6
          rings ...
          # BATM   270
          # H in HB   15
          doing iterative Hueckel for 5 subsystem(s) ...
          iterative Hueckel run to get P ...
Hueckel system :  1 charge :   0 ndim/Nel :    3    3   eps(HOMO/LUMO)   -0.953512   -0.953512
Hueckel system :  2 charge :   0 ndim/Nel :    3    4   eps(HOMO/LUMO)   -0.911362   -0.911362
Hueckel system :  3 charge :   0 ndim/Nel :    3    4   eps(HOMO/LUMO)   -0.911922   -0.911922
Hueckel system :  4 charge :   0 ndim/Nel :    3    4   eps(HOMO/LUMO)   -0.910012   -0.910012
Hueckel system :  5 charge :   0 ndim/Nel :    4    5   eps(HOMO/LUMO)    1.305315    1.305315
WARNING: probably wrong pi occupation for system 5. Second attempt with Nel=Nel-1!
 at,nb,topo%hyb,Npiel:          26  C             3           2           1
 at,nb,topo%hyb,Npiel:          27  O             1           2           1
 at,nb,topo%hyb,Npiel:          31  N             3           3           2
 at,nb,topo%hyb,Npiel:          32  C             3           2           1

          eigenvalues
 #    :           1          2          3          4
 occ. :        2.000      1.987      0.013      0.000
 eps  :        -4.349     -2.183      1.305      3.389
Hueckel system :  5 charge :   0 ndim/Nel :    4    4   eps(HOMO/LUMO)   -2.182828    1.305315

  atom   neighbors  erfCN metchar sp-hybrid imet pi  qest     coordinates
    1   C      2    1.93   0.00        -2    0    1   0.120   -1.475876  -17.272097   -5.606817
    2   O      1    0.98   0.00         2    0    1  -0.120   -3.494104  -16.397154   -4.964311
    3   N      3    2.79   0.00        -3    0    1  -0.166    0.030236  -16.005980   -7.326468
    4   C      4    3.49   0.00         3    0    0   0.005    2.501997  -16.793996   -8.242985
    5   C      3    2.80   0.00         2    0    1   0.174    2.881832  -16.038106  -10.973640
    6   O      1    0.98   0.00         2    0    1  -0.352    1.103600  -16.092908  -12.417390
    7   H      1    0.98   0.00         0    0    0   0.153   -0.655735  -14.424280   -8.178735
    8   H      1    0.98   0.00         0    0    0   0.093    3.966535  -16.039995   -7.052458
    9   H      1    0.97   0.01         0    0    0   0.093    2.613491  -18.880254   -8.171176
   10   N      3    2.79   0.00        -3    0    1  -0.168    5.262887  -15.333238  -11.761655
   11   C      4    3.49   0.00         3    0    0   0.006    5.678627  -14.375147  -14.297668
   12   C      3    2.79   0.00         2    0    1   0.175    5.971535  -11.531109  -14.273101
   13   O      1    0.98   0.00         2    0    1  -0.352    4.259443  -10.316015  -13.345246
   14   H      1    0.98   0.00         0    0    0   0.154    6.670733  -14.964741  -10.493649
   15   H      1    0.97   0.00         0    0    0   0.092    7.284894  -15.323789  -15.153714
   16   H      1    0.97   0.00         0    0    0   0.092    4.002440  -14.849468  -15.412606
   17   N      3    2.79   0.00        -3    0    1  -0.167    8.048344  -10.259323  -15.244421
   18   C      4    3.49   0.00         3    0    0   0.005   10.257433  -11.317570  -16.523765
   19   C      3    2.79   0.00         2    0    1   0.178   10.229088  -10.727975  -19.313001
   20   O      1    0.98   0.00         2    0    1  -0.353    8.764550  -11.846693  -20.673604
   21   H      1    0.98   0.00         0    0    0   0.151    7.959526   -8.341251  -15.337017
   22   H      1    0.97   0.00         0    0    0   0.093   11.971415  -10.593805  -15.650712
   23   H      1    0.97   0.00         0    0    0   0.093   10.300897  -13.375482  -16.283770
   24   N      3    2.79   0.00        -3    0    1  -0.170   11.867480   -8.917618  -20.237077
   25   C      4    3.49   0.00         3    0    0   0.006   11.674728   -8.035115  -22.843009
   26   C      3    2.79   0.00         2    0    1   0.195   10.975529   -5.266667  -22.899701
   27   O      1    0.98   0.00         2    0    1  -0.357    9.155723   -4.610932  -21.667600
   28   H      1    0.98   0.00         0    0    0   0.147   12.821792   -7.740318  -19.044660
   29   H      1    0.97   0.00         0    0    0   0.090   13.464299   -8.382825  -23.806770
   30   H      1    0.97   0.00         0    0    0   0.090   10.208301   -9.134936  -23.765196
   31   N      3    2.79   0.00         3    0    1  -0.226   12.294558   -3.484655  -24.294319
   32   C      3    2.78   0.00         2    0    1  -0.008   14.664275   -3.821026  -25.651142
   33   H      1    0.98   0.00         0    0    0   0.123   11.731420   -1.636503  -24.220620
   34   H      1    0.97   0.00         0    0    0   0.055   16.126923   -4.423849  -24.311327
   35   H      1    0.97   0.01         0    0    0   0.055   14.420500   -5.349815  -27.045760

molecular fragment  # atoms  topo charge
       1             2            -0.000
       2             7            -0.000
       3             7            -0.000
       4             7             0.000
       5             7             0.000
       6             5            -0.000


          #atoms :   35
          #bonds :   34

 bond atoms        type  in ring    R      R0    piBO    fqq  kbond(tot)  alp
 O  C     2    1      2    0     1.213   0.995   0.799   1.047  -0.252   0.584
 N  C     3    1      2    0     1.383   1.214   0.504   1.047  -0.235   0.524
 C  N     4    3      1    0     1.456   1.325 -99.000   1.033  -0.151   0.496
 C  C     5    4      1    0     1.513   1.332 -99.000   1.013  -0.162   0.475
 O  C     6    5      2    0     1.212   1.031   0.856   1.047  -0.262   0.584
 H  N     7    3      1    0     1.018   0.890 -99.000   1.047  -0.176   0.551
 H  C     8    4      1    0     1.075   0.976 -99.000   1.018  -0.164   0.482
 H  C     9    4      1    0     1.106   0.976 -99.000   1.018  -0.164   0.482
 N  C    10    5      2    0     1.379   1.263   0.503   1.047  -0.234   0.524
 C  N    11   10      1    0     1.451   1.326 -99.000   1.036  -0.151   0.496
 C  C    12   11      1    0     1.513   1.332 -99.000   1.011  -0.162   0.475
 O  C    13   12      2    0     1.215   1.031   0.856   1.047  -0.262   0.584
 H  N    14   10      1    0     1.021   0.890 -99.000   1.047  -0.176   0.551
 H  C    15   11      1    0     1.086   0.977 -99.000   1.016  -0.164   0.482
 H  C    16   11      1    0     1.094   0.976 -99.000   1.016  -0.164   0.482
 N  C    17   12      2    0     1.387   1.263   0.503   1.047  -0.234   0.524
 C  N    18   17      1    0     1.462   1.325 -99.000   1.033  -0.151   0.496
 C  C    19   18      1    0     1.509   1.332 -99.000   1.014  -0.162   0.475
 O  C    20   19      2    0     1.212   1.031   0.856   1.047  -0.262   0.584
 H  N    21   17      1    0     1.017   0.890 -99.000   1.047  -0.176   0.551
 H  C    22   18      1    0     1.088   0.976 -99.000   1.018  -0.164   0.482
 H  C    23   18      1    0     1.097   0.976 -99.000   1.018  -0.164   0.482
 N  C    24   19      2    0     1.381   1.263   0.504   1.047  -0.234   0.524
 C  N    25   24      1    0     1.459   1.326 -99.000   1.034  -0.151   0.496
 C  C    26   25      1    0     1.511   1.332 -99.000   1.011  -0.162   0.475
 O  C    27   26      2    0     1.214   1.018   0.930   1.047  -0.274   0.584
 H  N    28   24      1    0     1.020   0.890 -99.000   1.047  -0.176   0.551
 H  C    29   25      1    0     1.091   0.976 -99.000   1.018  -0.164   0.482
 H  C    30   25      1    0     1.086   0.977 -99.000   1.018  -0.164   0.482
 N  C    31   26      2    0     1.386   1.291   0.346   1.047  -0.203   0.524
 C  N    32   31      2    0     1.456   1.189   0.906   1.006  -0.302   0.524
 H  N    33   31      1    0     1.023   0.890 -99.000   1.047  -0.176   0.551
 H  C    34   32      1    0     1.097   0.949 -99.000   1.029  -0.179   0.490
 H  C    35   32      1    0     1.103   0.949 -99.000   1.029  -0.179   0.490
          #angl  :   55

 angle atoms        phi0    phi      FC  pi rings
    1    3    2   145.000 120.472   0.082 F   0
    3    4    1   115.000 126.741   0.411 F   0
    3    7    1   115.000 118.982   0.335 F   0
    3    7    4   104.000 114.101   0.182 F   0
    4    5    3   109.500 111.212   0.307 F   0
    4    8    3   109.500 110.241   0.253 F   0
    4    8    5   109.500 111.450   0.251 F   0
    4    9    3   109.500 108.802   0.253 F   0
    4    9    5   109.500 106.835   0.251 F   0
    4    9    8   108.600 108.161   0.209 F   0
    5    6    4   120.000 119.503   0.178 F   0
    5   10    4   120.000 118.810   0.243 F   0
    5   10    6   120.000 121.682   0.176 F   0
   10   11    5   115.000 120.846   0.409 F   0
   10   14    5   115.000 121.303   0.333 F   0
   10   14   11   104.000 115.479   0.182 F   0
   11   12   10   109.500 110.797   0.307 F   0
   11   15   10   109.500 110.049   0.253 F   0
   11   15   12   109.500 112.529   0.252 F   0
   11   16   10   109.500 107.187   0.253 F   0
   11   16   12   109.500 108.408   0.252 F   0
   11   16   15   108.600 107.662   0.209 F   0
   12   13   11   120.000 116.977   0.178 F   0
   12   17   11   120.000 124.088   0.243 F   0
   12   17   13   120.000 118.935   0.176 F   0
   17   18   12   115.000 128.241   0.409 F   0
   17   21   12   115.000 117.726   0.333 F   0
   17   21   18   104.000 113.374   0.182 F   0
   18   19   17   109.500 111.456   0.307 F   0
   18   22   17   109.500 109.582   0.253 F   0
   18   22   19   109.500 110.552   0.251 F   0
   18   23   17   109.500 110.086   0.253 F   0
   18   23   19   109.500 108.595   0.251 F   0
   18   23   22   108.600 106.441   0.209 F   0
   19   20   18   120.000 119.107   0.178 F   0
   19   24   18   120.000 118.911   0.242 F   0
   19   24   20   120.000 121.981   0.176 F   0
   24   25   19   115.000 120.828   0.409 F   0
   24   28   19   115.000 121.001   0.333 F   0
   24   28   25   104.000 115.055   0.182 F   0
   25   26   24   109.500 110.245   0.307 F   0
   25   29   24   109.500 109.086   0.253 F   0
   25   29   26   109.500 111.509   0.251 F   0
   25   30   24   109.500 107.643   0.253 F   0
   25   30   26   109.500 109.614   0.251 F   0
   25   30   29   108.600 108.650   0.209 F   0
   26   27   25   120.000 117.436   0.177 F   0
   26   31   25   120.000 123.147   0.241 F   0
   26   31   27   120.000 119.414   0.174 F   0
   31   32   26   113.000 127.818   0.042 F   0
   31   33   26   113.000 118.906   0.211 F   0
   31   33   32   113.000 112.739   0.105 F   0
   32   34   31   120.000 108.936   0.204 F   0
   32   35   31   120.000 108.603   0.204 F   0
   32   35   34   120.000 107.563   0.167 F   0
 torsion atoms        nrot   rings    phi0    phi      FC
    3    1    4    2   2      0     180.000 178.954   0.765
    3    1    7    2   2      0     180.000   6.162   1.135
    4    3    5    1   3      0     180.000 145.661   0.024
    4    3    5    7   3      0     180.000  29.436   0.032
    4    3    8    1   3      0     180.000  90.200   0.034
    4    3    8    7   3      0     180.000  94.703   0.045
    4    3    9    1   3      0     180.000  28.254   0.034
    4    3    9    7   3      0     180.000 146.843   0.045
    5    4    6    3   3      0     180.000  35.730   0.066
    5    4    6    8   3      0     180.000 159.180   0.115
    5    4    6    9   3      0     180.000  82.866   0.115
    5    4   10    3   3      0     180.000 145.100   0.041
    5    4   10    8   3      0     180.000  21.649   0.072
    5    4   10    9   3      0     180.000  96.304   0.072
   10    5   11    4   2      0     180.000 174.381   0.615
   10    5   11    6   2      0     180.000   6.468   0.833
   10    5   14    4   2      0     180.000  12.651   0.912
   10    5   14    6   2      0     180.000 168.197   1.236
   11   10   12    5   3      0     180.000 102.821   0.022
   11   10   12   14   3      0     180.000  59.918   0.032
   11   10   15    5   3      0     180.000 132.087   0.032
   11   10   15   14   3      0     180.000  65.175   0.045
   11   10   16    5   3      0     180.000  15.282   0.032
   11   10   16   14   3      0     180.000 178.021   0.045
   12   11   13   10   3      0     180.000  56.240   0.066
   12   11   13   15   3      0     180.000 179.920   0.115
   12   11   13   16   3      0     180.000  61.118   0.115
   12   11   17   10   3      0     180.000 124.013   0.041
   12   11   17   15   3      0     180.000   0.333   0.072
   12   11   17   16   3      0     180.000 118.630   0.072
   17   12   18   11   2      0     180.000   2.353   0.614
   17   12   18   13   2      0     180.000 177.389   0.832
   17   12   21   11   2      0     180.000 172.362   0.911
   17   12   21   13   2      0     180.000   7.381   1.235
   18   17   19   12   3      0     180.000 108.214   0.022
   18   17   19   21   3      0     180.000  62.155   0.032
   18   17   22   12   3      0     180.000 129.092   0.032
   18   17   22   21   3      0     180.000  60.540   0.045
   18   17   23   12   3      0     180.000  12.352   0.032
   18   17   23   21   3      0     180.000 177.279   0.045
   19   18   20   17   3      0     180.000  73.789   0.066
   19   18   20   22   3      0     180.000 164.074   0.115
   19   18   20   23   3      0     180.000  47.648   0.115
   19   18   24   17   3      0     180.000 105.897   0.041
   19   18   24   22   3      0     180.000  16.239   0.072
   19   18   24   23   3      0     180.000 132.666   0.072
   24   19   25   18   2      0     180.000 171.528   0.620
   24   19   25   20   2      0     180.000   8.148   0.840
   24   19   28   18   2      0     180.000  12.468   0.920
   24   19   28   20   2      0     180.000 167.208   1.247
   25   24   26   19   3      0     180.000 115.611   0.022
   25   24   26   28   3      0     180.000  44.624   0.032
   25   24   29   19   3      0     180.000 121.629   0.032
   25   24   29   28   3      0     180.000  78.136   0.045
   25   24   30   19   3      0     180.000   3.910   0.032
   25   24   30   28   3      0     180.000 164.146   0.045
   26   25   27   24   3      0     180.000  51.347   0.066
   26   25   27   29   3      0     180.000 172.676   0.115
   26   25   27   30   3      0     180.000  66.971   0.115
   26   25   31   24   3      0     180.000 129.190   0.041
   26   25   31   29   3      0     180.000   7.861   0.072
   26   25   31   30   3      0     180.000 112.492   0.072
   31   26   32   25   2      0     180.000   8.072   0.343
   31   26   32   27   2      0     180.000 172.475   0.465
   31   26   33   25   2      0     180.000 179.006   0.489
   31   26   33   27   2      0     180.000   1.541   0.663
   32   31   34   26   2      0     180.000  58.930   1.385
   32   31   34   33   2      0     180.000 112.467   1.974
   32   31   35   26   2      0     180.000  57.948   1.385
   32   31   35   33   2      0     180.000 130.655   1.974
 out-of-plane atoms          phi0    phi      FC
    3    7    1    4          0.000   4.098   0.133
    5    6   10    4          0.000  -0.743  23.920
   10   14    5   11          0.000  15.614   0.125
   12   13   17   11          0.000  -0.213  23.974
   17   21   12   18          0.000   7.832   0.130
   19   20   24   18          0.000   0.283  24.122
   24   28   19   25          0.000  17.872   0.116
   26   27   31   25          0.000  -0.458  28.543
   31   33   26   32          0.000  -7.151  -0.052
   32   34   35   31          0.000  57.005   0.552
          #tors  :   80
          #nmol  :   6
          #optfrag :   6

 GFN-FF setup done.

           ------------------------------------------------- 
          |                   G F N - F F                   |
          |          A general generic force-field          |
          |                  Version 1.0.3                  | 
           ------------------------------------------------- 
      * Solvation model:               ALPB
        Solvent                        water
        Parameter file                 internal GFN-FF/ALPB
        Dielectric constant                8.0200E+01
        Reference state                gsolv [1 M gas/solution]
        Free energy shift                  3.6494E-04 Eh       2.2900E-01 kcal/mol
        Temperature                        2.9815E+02 K
        Density                            1.0000E+00 kg/L
        Solvent mass                       1.8000E+01 g/mol
        Interaction kernel             P16
        Born radius scaling (c1)           1.5056E+00
        Born radii integrator          GBOBC
        Born offset                        0.0000E+00 a0       0.0000E+00 AA
        H-bond correction              true
        Ion screening                  false
        Surface tension                    1.0000E-05 Eh       1.5569E+01 dyn/cm
        Grid points                               230 per atom
          Number of HB bonds (bound hydrogen)     332
          Number of HB bonds (unbound hydrogen)   43
          Number of XB bonds                      0

 E+G (total)                   0 d,  0 h,  0 min,  0.001 sec
 distance/D3 list               ...        0 min,  0.000 sec (  0.271%)
 non bonded repulsion           ...        0 min,  0.000 sec (  1.974%)
 dCN                            ...        0 min,  0.000 sec (  3.185%)
 EEQ energy and q               ...        0 min,  0.000 sec (  4.376%)
 D3                             ...        0 min,  0.000 sec (  7.816%)
 EEQ gradient                   ...        0 min,  0.000 sec (  4.318%)
 bonds                          ...        0 min,  0.000 sec (  1.028%)
 bend and torsion               ...        0 min,  0.000 sec (  3.717%)
 bonded ATM                     ...        0 min,  0.000 sec (  1.539%)
 HB/XB (incl list setup)        ...        0 min,  0.000 sec (  9.050%)
 GBSA                           ...        0 min,  0.000 sec ( 64.866%)

         :::::::::::::::::::::::::::::::::::::::::::::::::::::
         ::                     SUMMARY                     ::
         :::::::::::::::::::::::::::::::::::::::::::::::::::::
         :: total energy              -6.222707028895 Eh    ::
         :: total w/o Gsolv           -6.183463791107 Eh    ::
         :: total w/o Gsasa/hb        -6.217981534138 Eh    ::
         :: gradient norm              0.166714117664 Eh/a0 ::
         ::.................................................::
         :: bond energy               -6.271561209576 Eh    ::
         :: angle energy               0.030571582265 Eh    ::
         :: torsion energy             0.020178748467 Eh    ::
         :: repulsion energy           0.374930336291 Eh    ::
         :: electrostat energy        -0.308041454155 Eh    ::
         :: dispersion energy         -0.022702104064 Eh    ::
         :: HB energy                 -0.000510688805 Eh    ::
         :: XB energy                  0.000000000000 Eh    ::
         :: bonded atm energy         -0.006329001530 Eh    ::
         :: external energy            0.000000000000 Eh    ::
         :: -> Gsolv                  -0.039243237788 Eh    ::
         ::    -> Gborn               -0.034517743031 Eh    ::
         ::    -> Gsasa                0.010058392043 Eh    ::
         ::    -> Ghb                 -0.015148826055 Eh    ::
         ::    -> Gshift               0.000364939255 Eh    ::
         :: add. restraining           0.000000000000 Eh    ::
         :: total charge               0.000000000000 e     ::
         ::.................................................::
         :: atomisation energy         0.000000000000 Eh    ::
         :::::::::::::::::::::::::::::::::::::::::::::::::::::

      ----------------------------------------------------------- 
     |                   =====================                   |
     |                        A N C O P T                        |
     |                   =====================                   |
     |               Approximate Normal Coordinate               |
     |                Rational Function Optimizer                |
      ----------------------------------------------------------- 

          ...................................................
          :                      SETUP                      :
          :.................................................:
          :   optimization level         verytight          :
          :   max. optcycles                    10          :
          :   ANC micro-cycles                  10          :
          :   degrees of freedom                99          :
          :.................................................:
          :   RF solver                   davidson          :
          :   write xtbopt.log                true          :
          :   linear?                        false          :
          :   energy convergence         0.1000000E-06 Eh   :
          :   grad. convergence          0.2000000E-03 Eh/α :
          :   maxmium RF displ.          1.0000000          :
          :   Hlow (freq-cutoff)         0.1000000E-01      :
          :   Hmax (freq-cutoff)         5.0000000          :
          :   S6 in model hess.         20.0000000          :
          ...................................................

generating ANC from model Hessian ...
Using GFN-FF Lindh-Hessian
 Shifting diagonal of input Hessian by    0.0000000000000000     
 Lowest  eigenvalues of input Hessian
    0.000000    0.000000    0.000000    0.000000    0.000000    0.000000
    0.019779    0.021152    0.024395    0.029738    0.051486    0.054424
    0.066496    0.076687    0.083549    0.089899    0.102698    0.116989
 Highest eigenvalues
    3.354269    3.728364    3.751844    4.060781    4.151978    4.212462


........................................................................
.............................. CYCLE    1 ..............................
........................................................................
     iter. time                 ...        0 min,  0.001 sec
 * total energy  :    -6.2227070 Eh     change        0.0000000E+00 Eh
   gradient norm :     0.1667141 Eh/α   predicted     0.0000000E+00 (    NaN%)
   displ. norm   :     0.0842213 α      lambda       -0.1081423E-01
   maximum displ.:     0.0360075 α      in ANC's #42, #5, #89, ...

........................................................................
.............................. CYCLE    2 ..............................
........................................................................
     iter. time                 ...        0 min,  0.001 sec
 * total energy  :    -6.2299389 Eh     change       -0.7231849E-02 Eh
   gradient norm :     0.0616316 Eh/α   predicted    -0.5458627E-02 ( -24.52%)
   displ. norm   :     0.0564038 α      lambda       -0.2666175E-02
   maximum displ.:     0.0150915 α      in ANC's #54, #42, #60, ...

........................................................................
.............................. CYCLE    3 ..............................
........................................................................
     iter. time                 ...        0 min,  0.001 sec
 * total energy  :    -6.2314449 Eh     change       -0.1506008E-02 Eh
   gradient norm :     0.0175381 Eh/α   predicted    -0.1337360E-02 ( -11.20%)
   displ. norm   :     0.0245206 α      lambda       -0.2493511E-03
   maximum displ.:     0.0096334 α      in ANC's #36, #18, #29, ...

........................................................................
.............................. CYCLE    4 ..............................
........................................................................
     iter. time                 ...        0 min,  0.001 sec
 * total energy  :    -6.2316267 Eh     change       -0.1818578E-03 Eh
   gradient norm :     0.0097197 Eh/α   predicted    -0.1303200E-03 ( -28.34%)
   displ. norm   :     0.0229919 α      lambda       -0.1187353E-03
   maximum displ.:     0.0095004 α      in ANC's #36, #18, #29, ...

........................................................................
.............................. CYCLE    5 ..............................
........................................................................
     iter. time                 ...        0 min,  0.000 sec
 * total energy  :    -6.2316987 Eh     change       -0.7197833E-04 Eh
   gradient norm :     0.0038220 Eh/α   predicted    -0.5941210E-04 ( -17.46%)
   displ. norm   :     0.0114566 α      lambda       -0.2382963E-04
   maximum displ.:     0.0053833 α      in ANC's #29, #36, #18, ...

........................................................................
.............................. CYCLE    6 ..............................
........................................................................
     iter. time                 ...        0 min,  0.000 sec
 * total energy  :    -6.2317165 Eh     change       -0.1774580E-04 Eh
   gradient norm :     0.0029625 Eh/α   predicted    -0.1212133E-04 ( -31.69%)
   displ. norm   :     0.0132462 α      lambda       -0.1905394E-04
   maximum displ.:     0.0062964 α      in ANC's #29, #36, #25, ...

........................................................................
.............................. CYCLE    7 ..............................
........................................................................
     iter. time                 ...        0 min,  0.000 sec
 * total energy  :    -6.2317287 Eh     change       -0.1223358E-04 Eh
   gradient norm :     0.0024269 Eh/α   predicted    -0.9539172E-05 ( -22.02%)
   displ. norm   :     0.0066761 α      lambda       -0.5706636E-05
   maximum displ.:     0.0028778 α      in ANC's #29, #22, #25, ...

........................................................................
.............................. CYCLE    8 ..............................
........................................................................
     iter. time                 ...        0 min,  0.000 sec
 * total energy  :    -6.2317327 Eh     change       -0.3962093E-05 Eh
   gradient norm :     0.0015095 Eh/α   predicted    -0.2888510E-05 ( -27.10%)
   displ. norm   :     0.0065787 α      lambda       -0.2680869E-05
   maximum displ.:     0.0021828 α      in ANC's #29, #22, #25, ...

........................................................................
.............................. CYCLE    9 ..............................
........................................................................
     iter. time                 ...        0 min,  0.000 sec
 * total energy  :    -6.2317345 Eh     change       -0.1865685E-05 Eh
   gradient norm :     0.0008606 Eh/α   predicted    -0.1357313E-05 ( -27.25%)
   displ. norm   :     0.0018013 α      lambda       -0.4507520E-06
   maximum displ.:     0.0008195 α      in ANC's #36, #29, #18, ...

........................................................................
.............................. CYCLE   10 ..............................
........................................................................
     iter. time                 ...        0 min,  0.000 sec
 * total energy  :    -6.2317350 Eh     change       -0.5032946E-06 Eh
   gradient norm :     0.0004261 Eh/α   predicted    -0.2490800E-06 ( -50.51%)
   displ. norm   :     0.0016867 α      lambda       -0.2534723E-06
   maximum displ.:     0.0006461 α      in ANC's #1, #36, #37, ...

   *** FAILED TO CONVERGE GEOMETRY OPTIMIZATION IN 10 ITERATIONS ***


 ANCopt (total)                0 d,  0 h,  0 min,  0.007 sec
 optimizer setup                ...        0 min,  0.000 sec (  0.858%)
 model hessian                  ...        0 min,  0.000 sec (  3.507%)
 ANC generation                 ...        0 min,  0.001 sec (  9.097%)
 coordinate transformation      ...        0 min,  0.000 sec (  0.467%)
 single point calculation       ...        0 min,  0.005 sec ( 74.679%)
 optimization log               ...        0 min,  0.000 sec (  5.571%)
 hessian update                 ...        0 min,  0.000 sec (  0.706%)
 rational function              ...        0 min,  0.000 sec (  2.952%)

================
 final structure:
================
ATOM      1  C   GLY A  12      -0.774  -9.104  -2.957  1.00  0.00           C  
ATOM      2  O   GLY A  12      -1.853  -8.697  -2.632  1.00  0.00           O  
ATOM      3  N   GLY A  13       0.015  -8.472  -3.873  1.00  0.00           N  
ATOM      4  CA  GLY A  13       1.320  -8.900  -4.372  1.00  0.00           C  
ATOM      5  C   GLY A  13       1.526  -8.487  -5.806  1.00  0.00           C  
ATOM      6  O   GLY A  13       0.585  -8.518  -6.571  1.00  0.00           O  
ATOM      7  H   GLY A  13      -0.349  -7.637  -4.332  1.00  0.00           H  
ATOM      8  HA2 GLY A  13       2.100  -8.487  -3.731  1.00  0.00           H  
ATOM      9  HA3 GLY A  13       1.384  -9.991  -4.320  1.00  0.00           H  
ATOM     10  N   GLY A  14       2.786  -8.114  -6.223  1.00  0.00           N  
ATOM     11  CA  GLY A  14       3.004  -7.601  -7.563  1.00  0.00           C  
ATOM     12  C   GLY A  14       3.160  -6.102  -7.553  1.00  0.00           C  
ATOM     13  O   GLY A  14       2.254  -5.459  -7.061  1.00  0.00           O  
ATOM     14  H   GLY A  14       3.530  -7.919  -5.552  1.00  0.00           H  
ATOM     15  HA2 GLY A  14       3.855  -8.110  -8.019  1.00  0.00           H  
ATOM     16  HA3 GLY A  14       2.118  -7.859  -8.156  1.00  0.00           H  
ATOM     17  N   GLY A  15       4.259  -5.429  -8.067  1.00  0.00           N  
ATOM     18  CA  GLY A  15       5.425  -5.995  -8.750  1.00  0.00           C  
ATOM     19  C   GLY A  15       5.413  -5.677 -10.221  1.00  0.00           C  
ATOM     20  O   GLY A  15       4.637  -6.268 -10.940  1.00  0.00           O  
ATOM     21  H   GLY A  15       4.212  -4.415  -8.117  1.00  0.00           H  
ATOM     22  HA2 GLY A  15       6.335  -5.606  -8.282  1.00  0.00           H  
ATOM     23  HA3 GLY A  15       5.452  -7.078  -8.618  1.00  0.00           H  
ATOM     24  N   GLY A  16       6.279  -4.720 -10.710  1.00  0.00           N  
ATOM     25  CA  GLY A  16       6.178  -4.244 -12.082  1.00  0.00           C  
ATOM     26  C   GLY A  16       5.801  -2.780 -12.111  1.00  0.00           C  
ATOM     27  O   GLY A  16       4.842  -2.440 -11.468  1.00  0.00           O  
ATOM     28  H   GLY A  16       6.786  -4.099 -10.078  1.00  0.00           H  
ATOM     29  HA2 GLY A  16       7.121  -4.438 -12.601  1.00  0.00           H  
ATOM     30  HA3 GLY A  16       5.399  -4.833 -12.577  1.00  0.00           H  
ATOM     31  N   GLY A  17       6.552  -1.848 -12.850  1.00  0.00           N  
ATOM     32  CA  GLY A  17       7.732  -2.016 -13.566  1.00  0.00           C  
ATOM     33  H   GLY A  17       6.197  -0.878 -12.830  1.00  0.00           H  
ATOM     34  HA2 GLY A  17       8.531  -2.345 -12.881  1.00  0.00           H  
ATOM     35  HA3 GLY A  17       7.647  -2.822 -14.301  1.00  0.00           H  
END

 Bond Distances (Angstroems)
 ---------------------------
C1-O2=1.1987         C1-N3=1.3641         O2-C1=1.1987         N3-C1=1.3641         N3-C4=1.4613         N3-H7=1.0200         
C4-N3=1.4613         C4-C5=1.5066         C4-H8=1.0906         C4-H9=1.0933         C5-C4=1.5066         C5-O6=1.2127         
C5-N10=1.3793        O6-C5=1.2127         H7-N3=1.0200         H8-C4=1.0906         H9-C4=1.0933         N10-C5=1.3793        
N10-C11=1.4511       N10-H14=1.0208       C11-N10=1.4511       C11-C12=1.5076       C11-H15=1.0908       C11-H16=1.0964       
C12-C11=1.5076       C12-O13=1.2145       C12-N17=1.3874       O13-C12=1.2145       H14-N10=1.0208       H15-C11=1.0908       
H16-C11=1.0964       N17-C12=1.3874       N17-C18=1.4655       N17-H21=1.0168       C18-N17=1.4655       C18-C19=1.5043       
C18-H22=1.0948       C18-H23=1.0911       C19-C18=1.5043       C19-O20=1.2121       C19-N24=1.3801       O20-C19=1.2121       
H21-N17=1.0168       H22-C18=1.0948       H23-C18=1.0911       N24-C19=1.3801       N24-C25=1.4561       N24-H28=1.0209       
C25-N24=1.4561       C25-C26=1.5124       C25-H29=1.0939       C25-H30=1.0938       C26-C25=1.5124       C26-O27=1.2041       
C26-N31=1.4064       O27-C26=1.2041       H28-N24=1.0209       H29-C25=1.0939       H30-C25=1.0938       N31-C26=1.4064       
N31-C32=1.3905       N31-H33=1.0333       C32-N31=1.3905       C32-H34=1.1024       C32-H35=1.0952       H33-N31=1.0333       
H34-C32=1.1024       H35-C32=1.0952       
 C  H  Rav=1.0942 sigma=0.0033  Rmin=1.0906  Rmax=1.1024    10
 C  C  Rav=1.5077 sigma=0.0030  Rmin=1.5043  Rmax=1.5124     4
 N  H  Rav=1.0224 sigma=0.0057  Rmin=1.0168  Rmax=1.0333     5
 N  C  Rav=1.4142 sigma=0.0377  Rmin=1.3641  Rmax=1.4655    10
 O  C  Rav=1.2084 sigma=0.0060  Rmin=1.1987  Rmax=1.2145     5

 selected bond angles (degree)
 --------------------
N3-C1-O2=123.07                C4-N3-C1=127.59                H7-N3-C1=118.37                H7-N3-C4=113.88                
C5-C4-N3=111.48                H8-C4-N3=109.08                H8-C4-C5=110.98                H9-C4-N3=109.18                
H9-C4-C5=108.07                H9-C4-H8=107.97                O6-C5-C4=119.21                N10-C5-C4=119.13               
N10-C5-O6=121.64               C11-N10-C5=120.82              H14-N10-C5=121.27              H14-N10-C11=115.45             

 selected dihedral angles (degree)
 ---------------------------------
C4-N3-C1-O2=182.13            H7-N3-C1-O2=357.31            C5-C4-N3-C1=147.53            C5-C4-N3-H7=332.17            
H8-C4-N3-C1=270.42            H8-C4-N3-H7= 95.06            H9-C4-N3-C1= 28.20            H9-C4-N3-H7=212.84            
O6-C5-C4-N3=322.98            O6-C5-C4-H8=201.18            O6-C5-C4-H9= 82.97            N10-C5-C4-N3=144.55           
N10-C5-C4-H8= 22.74           N10-C5-C4-H9=264.53           C11-N10-C5-C4=185.30          C11-N10-C5-O6=  6.90          
H14-N10-C5-C4=346.67          H14-N10-C5-O6=168.27          
           -------------------------------------------------
          |                Final Singlepoint                |
           -------------------------------------------------
         :::::::::::::::::::::::::::::::::::::::::::::::::::::
         ::                     SUMMARY                     ::
         :::::::::::::::::::::::::::::::::::::::::::::::::::::
         :: total energy              -6.231735265340 Eh    ::
         :: total w/o Gsolv           -6.192751460014 Eh    ::
         :: total w/o Gsasa/hb        -6.227160913635 Eh    ::
         :: gradient norm              0.000186348630 Eh/a0 ::
         ::.................................................::
         :: bond energy               -6.291798435305 Eh    ::
         :: angle energy               0.030128941056 Eh    ::
         :: torsion energy             0.023002955848 Eh    ::
         :: repulsion energy           0.379978399930 Eh    ::
         :: electrostat energy        -0.308670922977 Eh    ::
         :: dispersion energy         -0.022708521765 Eh    ::
         :: HB energy                 -0.000504852289 Eh    ::
         :: XB energy                  0.000000000000 Eh    ::
         :: bonded atm energy         -0.006117315672 Eh    ::
         :: external energy            0.000000000000 Eh    ::
         :: -> Gsolv                  -0.038983805325 Eh    ::
         ::    -> Gborn               -0.034409453620 Eh    ::
         ::    -> Gsasa                0.010093237329 Eh    ::
         ::    -> Ghb                 -0.015032528289 Eh    ::
         ::    -> Gshift               0.000364939255 Eh    ::
         :: add. restraining           0.003938291159 Eh    ::
         :: total charge               0.000000000000 e     ::
         ::.................................................::
         :: atomisation energy         0.000000000000 Eh    ::
         :::::::::::::::::::::::::::::::::::::::::::::::::::::

           -------------------------------------------------
          |                Property Printout                |
           -------------------------------------------------
           -------------------------------------------------
          |                Geometry Summary                 |
           -------------------------------------------------

      molecular mass/u    :      285.2570109
   center of mass at/Å    :        3.4451869      -6.0337990      -8.2707232
  moments of inertia/u·Å² :        0.3826617E+03   0.6417483E+04   0.6579920E+04
rotational constants/cm⁻¹ :        0.4405362E-01   0.2626829E-02   0.2561981E-02

 * 29 selected distances

     #   Z          #   Z                                           value/Å
     1   6  C       3   7  N                                      1.3641063
     3   7  N       4   6  C                                      1.4613376
     5   6  C       6   8  O                                      1.2127058
     3   7  N       7   1  H                                      1.0200120
     4   6  C       8   1  H                                      1.0905884
     4   6  C       9   1  H                                      1.0932665
     5   6  C      10   7  N                                      1.3792653
    10   7  N      11   6  C                                      1.4511013
    12   6  C      13   8  O                                      1.2144983
    10   7  N      14   1  H                                      1.0207915
    11   6  C      15   1  H                                      1.0908163
    11   6  C      16   1  H                                      1.0964006
    12   6  C      17   7  N                                      1.3874120
    17   7  N      18   6  C                                      1.4654980 (max)
    19   6  C      20   8  O                                      1.2120848
    17   7  N      21   1  H                                      1.0168254 (min)
    18   6  C      22   1  H                                      1.0947816
    18   6  C      23   1  H                                      1.0910917
    19   6  C      24   7  N                                      1.3800707
    24   7  N      25   6  C                                      1.4561098
    26   6  C      27   8  O                                      1.2040917
    24   7  N      28   1  H                                      1.0208800
    25   6  C      29   1  H                                      1.0939366
    25   6  C      30   1  H                                      1.0938369
    26   6  C      31   7  N                                      1.4064171
    31   7  N      32   6  C                                      1.3904665
    31   7  N      33   1  H                                      1.0333411
    32   6  C      34   1  H                                      1.1023985
    32   6  C      35   1  H                                      1.0951791

 * 4 distinct bonds (by element types)

   Z      Z             #   av. dist./Å        max./Å        min./Å
   1 H    6 C          10     1.0942296     1.1023985     1.0905884
   1 H    7 N           5     1.0223700     1.0333411     1.0168254
   6 C    7 N          10     1.4141785     1.4654980     1.3641063
   6 C    8 O           4     1.2108451     1.2144983     1.2040917


optimized geometry written to: xtbopt.pdb


           -------------------------------------------------
          | TOTAL ENERGY               -6.231735265340 Eh   |
          | GRADIENT NORM               0.000186348630 Eh/α |
           -------------------------------------------------
########################################################################
[WARNING] Runtime exception occurred
-1- gfnff_setup: Could not read topology file.
########################################################################

------------------------------------------------------------------------
 unit  open   action     filename
   10 false : read       xtb_settings.inp
   10 false : read       substructure_45.pdb
   10 false : read       xtb_settings.inp
   10 false : written    gfnff_topo
   10 false : written    gfnff_adjacency
   10 false : written    gfnff_charges
   10 false : deleted    .xtboptok
   10 false : replaced   xtbopt.log
   11 false : created    .xtboptok
   11 false : replaced   gfnff_charges
   10 false : replaced   xtbopt.pdb

------------------------------------------------------------------------
 * finished run on 2025/05/27 at 09:37:50.225     
------------------------------------------------------------------------
 total:
 * wall-time:     0 d,  0 h,  0 min,  0.012 sec
 *  cpu-time:     0 d,  0 h,  0 min,  0.012 sec
 * ratio c/w:     1.000 speedup
 SCF:
 * wall-time:     0 d,  0 h,  0 min,  0.001 sec
 *  cpu-time:     0 d,  0 h,  0 min,  0.001 sec
 * ratio c/w:     0.999 speedup
 ANC optimizer:
 * wall-time:     0 d,  0 h,  0 min,  0.008 sec
 *  cpu-time:     0 d,  0 h,  0 min,  0.008 sec
 * ratio c/w:     1.000 speedup

