      -----------------------------------------------------------      
     |                   =====================                   |     
     |                           x T B                           |     
     |                   =====================                   |     
     |                         S. Grimme                         |     
     |          Mulliken Center for Theoretical Chemistry        |     
     |                    University of Bonn                     |     
      -----------------------------------------------------------      

   * xtb version 6.6.1 (8d0f1dd) compiled by 'conda@1efc2f54142f' on 2023-08-01

   xtb is free software: you can redistribute it and/or modify it under
   the terms of the GNU Lesser General Public License as published by
   the Free Software Foundation, either version 3 of the License, or
   (at your option) any later version.
   
   xtb is distributed in the hope that it will be useful,
   but WITHOUT ANY WARRANTY; without even the implied warranty of
   MERCHANTABILITY or FITNESS FOR A PARTICULAR PURPOSE.  See the
   GNU Lesser General Public License for more details.
   
   Cite this work as:
   * C. Bannwarth, E. Caldeweyher, S. Ehlert, A. Hansen, P. Pracht,
     J. Seibert, S. Spicher, S. Grimme, WIREs Comput. Mol. Sci., 2020, 11,
     e01493. DOI: 10.1002/wcms.1493
   
   for GFN2-xTB:
   * C. Bannwarth, S. Ehlert and S. Grimme., J. Chem. Theory Comput., 2019,
     15, 1652-1671. DOI: 10.1021/acs.jctc.8b01176
   for GFN1-xTB:
   * S. Grimme, C. Bannwarth, P. Shushkov, J. Chem. Theory Comput., 2017,
     13, 1989-2009. DOI: 10.1021/acs.jctc.7b00118
   for GFN0-xTB:
   * P. Pracht, E. Caldeweyher, S. Ehlert, S. Grimme, ChemRxiv, 2019, preprint.
     DOI: 10.26434/chemrxiv.8326202.v1
   for GFN-FF:
   * S. Spicher and S. Grimme, Angew. Chem. Int. Ed., 2020, 59, 15665-15673.
     DOI: 10.1002/anie.202004239
   
   for ALPB and GBSA implicit solvation:
   * S. Ehlert, M. Stahn, S. Spicher, S. Grimme, J. Chem. Theory Comput.,
     2021, 17, 4250-4261. DOI: 10.1021/acs.jctc.1c00471
   
   for DFT-D4:
   * E. Caldeweyher, C. Bannwarth and S. Grimme, J. Chem. Phys., 2017,
     147, 034112. DOI: 10.1063/1.4993215
   * E. Caldeweyher, S. Ehlert, A. Hansen, H. Neugebauer, S. Spicher,
     C. Bannwarth and S. Grimme, J. Chem. Phys., 2019, 150, 154122.
     DOI: 10.1063/1.5090222
   * E. Caldeweyher, J.-M. Mewes, S. Ehlert and S. Grimme, Phys. Chem. Chem. Phys.
     2020, 22, 8499-8512. DOI: 10.1039/D0CP00502A
   
   for sTDA-xTB:
   * S. Grimme and C. Bannwarth, J. Chem. Phys., 2016, 145, 054103.
     DOI: 10.1063/1.4959605
   
   in the mass-spec context:
   * V. Asgeirsson, C. Bauer and S. Grimme, Chem. Sci., 2017, 8, 4879.
     DOI: 10.1039/c7sc00601b
   * J. Koopman and S. Grimme, ACS Omega 2019, 4, 12, 15120-15133.
     DOI: 10.1021/acsomega.9b02011
   
   for metadynamics refer to:
   * S. Grimme, J. Chem. Theory Comput., 2019, 155, 2847-2862
     DOI: 10.1021/acs.jctc.9b00143
   
   for SPH calculations refer to:
   * S. Spicher and S. Grimme, J. Chem. Theory Comput., 2021, 17, 1701-1714
     DOI: 10.1021/acs.jctc.0c01306
   
   with help from (in alphabetical order)
   P. Atkinson, C. Bannwarth, F. Bohle, G. Brandenburg, E. Caldeweyher
   M. Checinski, S. Dohm, S. Ehlert, S. Ehrlich, I. Gerasimov, C. Hölzer
   A. Katbashev, J. Koopman, C. Lavigne, S. Lehtola, F. März, M. Müller,
   F. Musil, H. Neugebauer, J. Pisarek, C. Plett, P. Pracht, F. Pultar,
   J. Seibert, P. Shushkov, S. Spicher, M. Stahn, M. Steiner, T. Strunk,
   J. Stückrath, T. Rose, and J. Unsleber
   
 * started run on 2025/05/27 at 09:37:58.307     

           -------------------------------------------------
          |                Calculation Setup                |
           -------------------------------------------------

          program call               : xtb substructure_77.pdb --gfnff --input xtb_settings.inp --opt vtight --alpb water --verbose
          coordinate file            : substructure_77.pdb
          xtbhome directory          : /home/dargen3
          path for xtb               : /home/dargen3
          xcontrol input file        : xtb_settings.inp
          omp threads                :                     1

$$$$$$$$$$$$$$$$$$$$$$$$$$$$$$$$$$$$$$$$$$$$$$$$$$$$$$$$$$$$$$$$$$$$$$$$
 CONSTRAINTS & SCANS: DEBUG SECTION
$$$$$$$$$$$$$$$$$$$$$$$$$$$$$$$$$$$$$$$$$$$$$$$$$$$$$$$$$$$$$$$$$$$$$$$$
   ID    Z sym.   atoms
    1    6  C     1, 4, 5, 11, 12, 18, 19, 25, 26, 32
    2    8  O     2, 6, 13, 20, 27
    3    7  N     3, 10, 17, 24, 31
    4    1  H     7-9, 14-16, 21-23, 28-30, 33-35
> constrain
-> atoms: 1, 2, 3, 4, 5, 6, 7, 8, 9, 10, 11, 12, 13, 14, 15, 16, 18, 24, 25, 26, 27, 28, 29, 30, 31, 32, 33, 34, 35
--> 1: 1
--> 2: 2
--> 3: 3
--> 4: 4
--> 5: 5
--> 6: 6
--> 7: 7
--> 8: 8
--> 9: 9
--> 10: 10
--> 11: 11
--> 12: 12
--> 13: 13
--> 14: 14
--> 15: 15
--> 16: 16
--> 17: 18
--> 18: 24
--> 19: 25
--> 20: 26
--> 21: 27
--> 22: 28
--> 23: 29
--> 24: 30
--> 25: 31
--> 26: 32
--> 27: 33
--> 28: 34
--> 29: 35
-> force constant=1.0
$$$$$$$$$$$$$$$$$$$$$$$$$$$$$$$$$$$$$$$$$$$$$$$$$$$$$$$$$$$$$$$$$$$$$$$$
           -------------------------------------------------
          |                   Constraints                   |
           -------------------------------------------------

 * 29 constrained atom positions
   positions refering to input geometry

     #   Z                                   position/Å      displ./Å
     1   6 C     -0.8020001    -9.1640009    -3.0030003     0.0000000
     2   8 O     -1.8890002    -8.7210008    -2.6950003     0.0000000
     3   7 N     -0.0030000    -8.4910008    -3.9100004     0.0000000
     4   6 C      1.3240001    -8.8870008    -4.3620004     0.0000000
     5   6 C      1.5360001    -8.5130008    -5.8130005     0.0000000
     6   8 O      0.6120001    -8.5990008    -6.5930006     0.0000000
     7   1 H     -0.3770000    -7.6730007    -4.3840004     0.0000000
     8   1 H      2.0780002    -8.4540008    -3.7290003     0.0000000
     9   1 H      1.4080001    -9.9880009    -4.2980004     0.0000000
    10   7 N      2.7870003    -8.0970008    -6.2170006     0.0000000
    11   6 C      3.0050003    -7.6070007    -7.5660007     0.0000000
    12   6 C      3.1490003    -6.1010006    -7.5730007     0.0000000
    13   8 O      2.2300002    -5.4580005    -7.1070007     0.0000000
    14   1 H      3.5120003    -7.8580007    -5.5390005     0.0000000
    15   1 H      3.8620004    -8.1090008    -8.0080007     0.0000000
    16   1 H      2.1230002    -7.8740007    -8.1550008     0.0000000
    18   6 C      5.4280005    -5.9890006    -8.7440008     0.0000000
    24   7 N      6.2880006    -4.7270004   -10.7120010     0.0000000
    25   6 C      6.1780006    -4.2520004   -12.0880011     0.0000000
    26   6 C      5.8170005    -2.7840003   -12.1050011     0.0000000
    27   8 O      4.8620005    -2.4360002   -11.4420011     0.0000000
    28   1 H      6.7950006    -4.1060004   -10.0810009     0.0000000
    29   1 H      7.1210007    -4.4390004   -12.6050012     0.0000000
    30   1 H      5.3950005    -4.8260004   -12.5730012     0.0000000
    31   7 N      6.5130006    -1.8410002   -12.8450012     0.0000000
    32   6 C      7.7600007    -2.0220002   -13.5740013     0.0000000
    33   1 H      6.2210006    -0.8620001   -12.7990012     0.0000000
    34   1 H      8.5380008    -2.3470002   -12.8720012     0.0000000
    35   1 H      7.6210007    -2.8270003   -14.3140013     0.0000000

     applying 406 atom pairwise harmonic potentials
       applied force constant per pair:     0.0357143
     effective force constant per atom:     1.0000000
         constraining energy/grad norm:     0.0000000     0.0000000

     total constraint energy/grad norm:     0.0000000     0.0000000

          charge from pdb residues: 0

          entering GFN-FF setup routine... 35

          ==================== Thresholds ====================
          CN  :   150.00000
          rep :   500.00000
          disp:  2500.00000
          HB1 :   250.00000
          HB2 :   450.00000

          Pauling EN used:
          Z : 1  EN :  2.20
          Z : 6  EN :  2.55
          Z : 7  EN :  3.04
          Z : 8  EN :  3.44
          electric field strengths (au): 0.000

           ------------------------------------------------- 
          |           Force Field Initialization            |
           ------------------------------------------------- 

          distances ...
          ----------------------------------------
          generating topology and atomic info file ...
          pair mat ...
          computing topology distances matrix with Floyd-Warshall algo ...
          making topology EEQ charges ...
          #fragments for EEQ constrain from pdb file: 6
          ----------------------------------------
          generating topology and atomic info file ...
          pair mat ...
          computing topology distances matrix with Floyd-Warshall algo ...
          making topology EEQ charges ...
          #fragments for EEQ constrain from pdb file: 6
          rings ...
          # BATM   270
          # H in HB   15
          doing iterative Hueckel for 5 subsystem(s) ...
          iterative Hueckel run to get P ...
Hueckel system :  1 charge :   0 ndim/Nel :    3    3   eps(HOMO/LUMO)   -0.953512   -0.953512
Hueckel system :  2 charge :   0 ndim/Nel :    3    4   eps(HOMO/LUMO)   -0.911362   -0.911362
Hueckel system :  3 charge :   0 ndim/Nel :    3    4   eps(HOMO/LUMO)   -0.911922   -0.911922
Hueckel system :  4 charge :   0 ndim/Nel :    3    4   eps(HOMO/LUMO)   -0.910012   -0.910012
Hueckel system :  5 charge :   0 ndim/Nel :    4    5   eps(HOMO/LUMO)    1.305315    1.305315
WARNING: probably wrong pi occupation for system 5. Second attempt with Nel=Nel-1!
 at,nb,topo%hyb,Npiel:          26  C             3           2           1
 at,nb,topo%hyb,Npiel:          27  O             1           2           1
 at,nb,topo%hyb,Npiel:          31  N             3           3           2
 at,nb,topo%hyb,Npiel:          32  C             3           2           1

          eigenvalues
 #    :           1          2          3          4
 occ. :        2.000      1.987      0.013      0.000
 eps  :        -4.349     -2.183      1.305      3.389
Hueckel system :  5 charge :   0 ndim/Nel :    4    4   eps(HOMO/LUMO)   -2.182828    1.305315

  atom   neighbors  erfCN metchar sp-hybrid imet pi  qest     coordinates
    1   C      2    1.93   0.00        -2    0    1   0.120   -1.515560  -17.317450   -5.674848
    2   O      1    0.98   0.00         2    0    1  -0.120   -3.569693  -16.480302   -5.092812
    3   N      3    2.79   0.00        -3    0    1  -0.166   -0.005669  -16.045665   -7.388829
    4   C      4    3.49   0.00         3    0    0   0.005    2.501997  -16.793996   -8.242985
    5   C      3    2.80   0.00         2    0    1   0.174    2.902619  -16.087238  -10.984978
    6   O      1    0.98   0.00         2    0    1  -0.352    1.156512  -16.249755  -12.458964
    7   H      1    0.98   0.00         0    0    0   0.153   -0.712427  -14.499869   -8.284559
    8   H      1    0.98   0.00         0    0    0   0.093    3.926851  -15.975745   -7.046789
    9   H      1    0.97   0.01         0    0    0   0.093    2.660734  -18.874585   -8.122043
   10   N      3    2.79   0.00        -3    0    1  -0.168    5.266667  -15.301112  -11.748427
   11   C      4    3.49   0.00         3    0    0   0.006    5.678627  -14.375147  -14.297668
   12   C      3    2.79   0.00         2    0    1   0.175    5.950748  -11.529219  -14.310896
   13   O      1    0.98   0.00         2    0    1  -0.352    4.214089  -10.314125  -13.430284
   14   H      1    0.98   0.00         0    0    0   0.154    6.636718  -14.849468  -10.467193
   15   H      1    0.97   0.00         0    0    0   0.092    7.298122  -15.323789  -15.132927
   16   H      1    0.97   0.00         0    0    0   0.092    4.011889  -14.879704  -15.410717
   17   N      3    2.79   0.00        -3    0    1  -0.167    8.038895  -10.259323  -15.259538
   18   C      4    3.49   0.00         3    0    0   0.005   10.257433  -11.317570  -16.523765
   19   C      3    2.79   0.00         2    0    1   0.178   10.236646  -10.735534  -19.316780
   20   O      1    0.98   0.00         2    0    1  -0.353    8.766439  -11.846693  -20.675494
   21   H      1    0.98   0.00         0    0    0   0.151    7.934960   -8.343141  -15.388040
   22   H      1    0.97   0.00         0    0    0   0.093   11.963856  -10.586246  -15.646932
   23   H      1    0.97   0.00         0    0    0   0.093   10.304677  -13.373592  -16.279991
   24   N      3    2.79   0.00        -3    0    1  -0.170   11.882598   -8.932735  -20.242746
   25   C      4    3.49   0.00         3    0    0   0.006   11.674728   -8.035115  -22.843009
   26   C      3    2.79   0.00         2    0    1   0.195   10.992537   -5.260998  -22.875135
   27   O      1    0.98   0.00         2    0    1  -0.357    9.187848   -4.603373  -21.622246
   28   H      1    0.98   0.00         0    0    0   0.147   12.840689   -7.759215  -19.050329
   29   H      1    0.97   0.00         0    0    0   0.090   13.456740   -8.388494  -23.819998
   30   H      1    0.97   0.00         0    0    0   0.090   10.195072   -9.119818  -23.759527
   31   N      3    2.79   0.00         3    0    1  -0.226   12.307786   -3.478986  -24.273532
   32   C      3    2.78   0.00         2    0    1  -0.008   14.664275   -3.821026  -25.651142
   33   H      1    0.98   0.00         0    0    0   0.123   11.755986   -1.628944  -24.186605
   34   H      1    0.97   0.00         0    0    0   0.055   16.134482   -4.435187  -24.324555
   35   H      1    0.97   0.01         0    0    0   0.055   14.401603   -5.342256  -27.049540

molecular fragment  # atoms  topo charge
       1             2            -0.000
       2             7            -0.000
       3             7            -0.000
       4             7             0.000
       5             7             0.000
       6             5            -0.000


          #atoms :   35
          #bonds :   34

 bond atoms        type  in ring    R      R0    piBO    fqq  kbond(tot)  alp
 O  C     2    1      2    0     1.214   0.995   0.799   1.047  -0.252   0.584
 N  C     3    1      2    0     1.383   1.214   0.504   1.047  -0.235   0.524
 C  N     4    3      1    0     1.457   1.325 -99.000   1.033  -0.151   0.496
 C  C     5    4      1    0     1.513   1.332 -99.000   1.013  -0.162   0.475
 O  C     6    5      2    0     1.212   1.031   0.856   1.047  -0.262   0.584
 H  N     7    3      1    0     1.017   0.890 -99.000   1.047  -0.176   0.551
 H  C     8    4      1    0     1.075   0.976 -99.000   1.018  -0.164   0.482
 H  C     9    4      1    0     1.106   0.976 -99.000   1.018  -0.164   0.482
 N  C    10    5      2    0     1.379   1.263   0.503   1.047  -0.234   0.524
 C  N    11   10      1    0     1.452   1.326 -99.000   1.036  -0.151   0.496
 C  C    12   11      1    0     1.513   1.332 -99.000   1.011  -0.162   0.475
 O  C    13   12      2    0     1.215   1.031   0.856   1.047  -0.262   0.584
 H  N    14   10      1    0     1.021   0.890 -99.000   1.047  -0.176   0.551
 H  C    15   11      1    0     1.087   0.977 -99.000   1.016  -0.164   0.482
 H  C    16   11      1    0     1.094   0.976 -99.000   1.016  -0.164   0.482
 N  C    17   12      2    0     1.387   1.263   0.503   1.047  -0.234   0.524
 C  N    18   17      1    0     1.463   1.325 -99.000   1.033  -0.151   0.496
 C  C    19   18      1    0     1.510   1.332 -99.000   1.014  -0.162   0.475
 O  C    20   19      2    0     1.212   1.031   0.856   1.047  -0.262   0.584
 H  N    21   17      1    0     1.018   0.890 -99.000   1.047  -0.176   0.551
 H  C    22   18      1    0     1.086   0.976 -99.000   1.018  -0.164   0.482
 H  C    23   18      1    0     1.096   0.976 -99.000   1.018  -0.164   0.482
 N  C    24   19      2    0     1.382   1.263   0.504   1.047  -0.234   0.524
 C  N    25   24      1    0     1.460   1.326 -99.000   1.034  -0.151   0.496
 C  C    26   25      1    0     1.512   1.332 -99.000   1.011  -0.162   0.475
 O  C    27   26      2    0     1.214   1.018   0.930   1.047  -0.274   0.584
 H  N    28   24      1    0     1.020   0.890 -99.000   1.047  -0.176   0.551
 H  C    29   25      1    0     1.092   0.976 -99.000   1.018  -0.164   0.482
 H  C    30   25      1    0     1.085   0.977 -99.000   1.018  -0.164   0.482
 N  C    31   26      2    0     1.386   1.291   0.346   1.047  -0.203   0.524
 C  N    32   31      2    0     1.456   1.189   0.906   1.006  -0.302   0.524
 H  N    33   31      1    0     1.023   0.890 -99.000   1.047  -0.176   0.551
 H  C    34   32      1    0     1.097   0.949 -99.000   1.029  -0.179   0.490
 H  C    35   32      1    0     1.102   0.949 -99.000   1.029  -0.179   0.490
          #angl  :   55

 angle atoms        phi0    phi      FC  pi rings
    1    3    2   145.000 120.406   0.082 F   0
    3    4    1   115.000 126.676   0.411 F   0
    3    7    1   115.000 118.985   0.335 F   0
    3    7    4   104.000 114.152   0.182 F   0
    4    5    3   109.500 110.973   0.307 F   0
    4    8    3   109.500 110.278   0.253 F   0
    4    8    5   109.500 111.507   0.251 F   0
    4    9    3   109.500 108.774   0.253 F   0
    4    9    5   109.500 106.909   0.251 F   0
    4    9    8   108.600 108.268   0.209 F   0
    5    6    4   120.000 119.512   0.178 F   0
    5   10    4   120.000 118.854   0.243 F   0
    5   10    6   120.000 121.629   0.176 F   0
   10   11    5   115.000 120.687   0.409 F   0
   10   14    5   115.000 121.352   0.333 F   0
   10   14   11   104.000 115.559   0.182 F   0
   11   12   10   109.500 110.768   0.307 F   0
   11   15   10   109.500 109.897   0.253 F   0
   11   15   12   109.500 112.504   0.252 F   0
   11   16   10   109.500 107.274   0.253 F   0
   11   16   12   109.500 108.499   0.252 F   0
   11   16   15   108.600 107.701   0.209 F   0
   12   13   11   120.000 116.949   0.178 F   0
   12   17   11   120.000 124.033   0.243 F   0
   12   17   13   120.000 119.017   0.176 F   0
   17   18   12   115.000 128.269   0.409 F   0
   17   21   12   115.000 117.628   0.333 F   0
   17   21   18   104.000 113.220   0.182 F   0
   18   19   17   109.500 111.334   0.307 F   0
   18   22   17   109.500 109.596   0.253 F   0
   18   22   19   109.500 110.577   0.251 F   0
   18   23   17   109.500 110.155   0.253 F   0
   18   23   19   109.500 108.538   0.251 F   0
   18   23   22   108.600 106.523   0.209 F   0
   19   20   18   120.000 119.118   0.178 F   0
   19   24   18   120.000 118.912   0.242 F   0
   19   24   20   120.000 121.968   0.176 F   0
   24   25   19   115.000 120.761   0.409 F   0
   24   28   19   115.000 120.946   0.333 F   0
   24   28   25   104.000 114.984   0.182 F   0
   25   26   24   109.500 110.154   0.307 F   0
   25   29   24   109.500 109.002   0.253 F   0
   25   29   26   109.500 111.550   0.251 F   0
   25   30   24   109.500 107.668   0.253 F   0
   25   30   26   109.500 109.650   0.251 F   0
   25   30   29   108.600 108.724   0.209 F   0
   26   27   25   120.000 117.401   0.177 F   0
   26   31   25   120.000 123.141   0.241 F   0
   26   31   27   120.000 119.454   0.174 F   0
   31   32   26   113.000 127.798   0.042 F   0
   31   33   26   113.000 118.940   0.211 F   0
   31   33   32   113.000 112.714   0.105 F   0
   32   34   31   120.000 108.896   0.204 F   0
   32   35   31   120.000 108.601   0.204 F   0
   32   35   34   120.000 107.617   0.167 F   0
 torsion atoms        nrot   rings    phi0    phi      FC
    3    1    4    2   2      0     180.000 179.166   0.765
    3    1    7    2   2      0     180.000   6.114   1.135
    4    3    5    1   3      0     180.000 145.331   0.024
    4    3    5    7   3      0     180.000  29.608   0.032
    4    3    8    1   3      0     180.000  90.600   0.034
    4    3    8    7   3      0     180.000  94.461   0.045
    4    3    9    1   3      0     180.000  27.990   0.034
    4    3    9    7   3      0     180.000 146.949   0.045
    5    4    6    3   3      0     180.000  36.675   0.066
    5    4    6    8   3      0     180.000 160.041   0.115
    5    4    6    9   3      0     180.000  81.799   0.115
    5    4   10    3   3      0     180.000 144.120   0.041
    5    4   10    8   3      0     180.000  20.754   0.072
    5    4   10    9   3      0     180.000  97.406   0.072
   10    5   11    4   2      0     180.000 174.047   0.615
   10    5   11    6   2      0     180.000   6.766   0.833
   10    5   14    4   2      0     180.000  12.419   0.912
   10    5   14    6   2      0     180.000 168.394   1.236
   11   10   12    5   3      0     180.000 104.923   0.022
   11   10   12   14   3      0     180.000  57.718   0.032
   11   10   15    5   3      0     180.000 130.145   0.032
   11   10   15   14   3      0     180.000  67.214   0.045
   11   10   16    5   3      0     180.000  13.325   0.032
   11   10   16   14   3      0     180.000 175.966   0.045
   12   11   13   10   3      0     180.000  57.146   0.066
   12   11   13   15   3      0     180.000 179.411   0.115
   12   11   13   16   3      0     180.000  60.355   0.115
   12   11   17   10   3      0     180.000 122.902   0.041
   12   11   17   15   3      0     180.000   0.541   0.072
   12   11   17   16   3      0     180.000 119.597   0.072
   17   12   18   11   2      0     180.000   3.743   0.614
   17   12   18   13   2      0     180.000 176.209   0.832
   17   12   21   11   2      0     180.000 172.181   0.911
   17   12   21   13   2      0     180.000   7.770   1.235
   18   17   19   12   3      0     180.000 107.666   0.022
   18   17   19   21   3      0     180.000  61.194   0.032
   18   17   22   12   3      0     180.000 129.681   0.032
   18   17   22   21   3      0     180.000  61.459   0.045
   18   17   23   12   3      0     180.000  12.794   0.032
   18   17   23   21   3      0     180.000 178.346   0.045
   19   18   20   17   3      0     180.000  73.201   0.066
   19   18   20   22   3      0     180.000 164.712   0.115
   19   18   20   23   3      0     180.000  48.207   0.115
   19   18   24   17   3      0     180.000 106.235   0.041
   19   18   24   22   3      0     180.000  15.852   0.072
   19   18   24   23   3      0     180.000 132.357   0.072
   24   19   25   18   2      0     180.000 170.730   0.620
   24   19   25   20   2      0     180.000   8.689   0.840
   24   19   28   18   2      0     180.000  12.299   0.920
   24   19   28   20   2      0     180.000 167.121   1.247
   25   24   26   19   3      0     180.000 115.533   0.022
   25   24   26   28   3      0     180.000  44.112   0.032
   25   24   29   19   3      0     180.000 121.770   0.032
   25   24   29   28   3      0     180.000  78.585   0.045
   25   24   30   19   3      0     180.000   3.994   0.032
   25   24   30   28   3      0     180.000 163.639   0.045
   26   25   27   24   3      0     180.000  51.317   0.066
   26   25   27   29   3      0     180.000 172.504   0.115
   26   25   27   30   3      0     180.000  66.999   0.115
   26   25   31   24   3      0     180.000 129.348   0.041
   26   25   31   29   3      0     180.000   8.161   0.072
   26   25   31   30   3      0     180.000 112.336   0.072
   31   26   32   25   2      0     180.000   8.294   0.343
   31   26   32   27   2      0     180.000 172.384   0.465
   31   26   33   25   2      0     180.000 179.152   0.489
   31   26   33   27   2      0     180.000   1.526   0.663
   32   31   34   26   2      0     180.000  58.955   1.385
   32   31   34   33   2      0     180.000 112.375   1.974
   32   31   35   26   2      0     180.000  57.963   1.385
   32   31   35   33   2      0     180.000 130.706   1.974
 out-of-plane atoms          phi0    phi      FC
    3    7    1    4          0.000   4.232   0.133
    5    6   10    4          0.000  -0.712  23.920
   10   14    5   11          0.000  15.727   0.125
   12   13   17   11          0.000  -0.040  23.974
   17   21   12   18          0.000   9.053   0.130
   19   20   24   18          0.000   0.508  24.122
   24   28   19   25          0.000  18.415   0.116
   26   27   31   25          0.000  -0.568  28.543
   31   33   26   32          0.000  -7.212  -0.052
   32   34   35   31          0.000  57.021   0.552
          #tors  :   80
          #nmol  :   6
          #optfrag :   6

 GFN-FF setup done.

           ------------------------------------------------- 
          |                   G F N - F F                   |
          |          A general generic force-field          |
          |                  Version 1.0.3                  | 
           ------------------------------------------------- 
      * Solvation model:               ALPB
        Solvent                        water
        Parameter file                 internal GFN-FF/ALPB
        Dielectric constant                8.0200E+01
        Reference state                gsolv [1 M gas/solution]
        Free energy shift                  3.6494E-04 Eh       2.2900E-01 kcal/mol
        Temperature                        2.9815E+02 K
        Density                            1.0000E+00 kg/L
        Solvent mass                       1.8000E+01 g/mol
        Interaction kernel             P16
        Born radius scaling (c1)           1.5056E+00
        Born radii integrator          GBOBC
        Born offset                        0.0000E+00 a0       0.0000E+00 AA
        H-bond correction              true
        Ion screening                  false
        Surface tension                    1.0000E-05 Eh       1.5569E+01 dyn/cm
        Grid points                               230 per atom
          Number of HB bonds (bound hydrogen)     333
          Number of HB bonds (unbound hydrogen)   43
          Number of XB bonds                      0

 E+G (total)                   0 d,  0 h,  0 min,  0.001 sec
 distance/D3 list               ...        0 min,  0.000 sec (  0.271%)
 non bonded repulsion           ...        0 min,  0.000 sec (  1.872%)
 dCN                            ...        0 min,  0.000 sec (  3.054%)
 EEQ energy and q               ...        0 min,  0.000 sec (  4.668%)
 D3                             ...        0 min,  0.000 sec (  8.344%)
 EEQ gradient                   ...        0 min,  0.000 sec (  4.365%)
 bonds                          ...        0 min,  0.000 sec (  0.935%)
 bend and torsion               ...        0 min,  0.000 sec (  3.857%)
 bonded ATM                     ...        0 min,  0.000 sec (  1.532%)
 HB/XB (incl list setup)        ...        0 min,  0.000 sec (  9.193%)
 GBSA                           ...        0 min,  0.000 sec ( 64.092%)

         :::::::::::::::::::::::::::::::::::::::::::::::::::::
         ::                     SUMMARY                     ::
         :::::::::::::::::::::::::::::::::::::::::::::::::::::
         :: total energy              -6.222744616757 Eh    ::
         :: total w/o Gsolv           -6.183720582927 Eh    ::
         :: total w/o Gsasa/hb        -6.218058710922 Eh    ::
         :: gradient norm              0.167076958233 Eh/a0 ::
         ::.................................................::
         :: bond energy               -6.271478305320 Eh    ::
         :: angle energy               0.030389361902 Eh    ::
         :: torsion energy             0.020297455827 Eh    ::
         :: repulsion energy           0.375110047331 Eh    ::
         :: electrostat energy        -0.308446401915 Eh    ::
         :: dispersion energy         -0.022705825789 Eh    ::
         :: HB energy                 -0.000522602819 Eh    ::
         :: XB energy                  0.000000000000 Eh    ::
         :: bonded atm energy         -0.006364312143 Eh    ::
         :: external energy            0.000000000000 Eh    ::
         :: -> Gsolv                  -0.039024033830 Eh    ::
         ::    -> Gborn               -0.034338127995 Eh    ::
         ::    -> Gsasa                0.010079918451 Eh    ::
         ::    -> Ghb                 -0.015130763541 Eh    ::
         ::    -> Gshift               0.000364939255 Eh    ::
         :: add. restraining           0.000000000000 Eh    ::
         :: total charge              -0.000000000000 e     ::
         ::.................................................::
         :: atomisation energy         0.000000000000 Eh    ::
         :::::::::::::::::::::::::::::::::::::::::::::::::::::

      ----------------------------------------------------------- 
     |                   =====================                   |
     |                        A N C O P T                        |
     |                   =====================                   |
     |               Approximate Normal Coordinate               |
     |                Rational Function Optimizer                |
      ----------------------------------------------------------- 

          ...................................................
          :                      SETUP                      :
          :.................................................:
          :   optimization level         verytight          :
          :   max. optcycles                    10          :
          :   ANC micro-cycles                  10          :
          :   degrees of freedom                99          :
          :.................................................:
          :   RF solver                   davidson          :
          :   write xtbopt.log                true          :
          :   linear?                        false          :
          :   energy convergence         0.1000000E-06 Eh   :
          :   grad. convergence          0.2000000E-03 Eh/α :
          :   maxmium RF displ.          1.0000000          :
          :   Hlow (freq-cutoff)         0.1000000E-01      :
          :   Hmax (freq-cutoff)         5.0000000          :
          :   S6 in model hess.         20.0000000          :
          ...................................................

generating ANC from model Hessian ...
Using GFN-FF Lindh-Hessian
 Shifting diagonal of input Hessian by    0.0000000000000000     
 Lowest  eigenvalues of input Hessian
    0.000000    0.000000    0.000000    0.000000    0.000000    0.000000
    0.019790    0.021167    0.024324    0.029871    0.051946    0.054572
    0.066130    0.076810    0.083810    0.090224    0.102234    0.116817
 Highest eigenvalues
    3.348781    3.724199    3.745230    4.055432    4.153843    4.209743


........................................................................
.............................. CYCLE    1 ..............................
........................................................................
     iter. time                 ...        0 min,  0.001 sec
 * total energy  :    -6.2227446 Eh     change        0.0000000E+00 Eh
   gradient norm :     0.1670769 Eh/α   predicted     0.0000000E+00 (    NaN%)
   displ. norm   :     0.0840483 α      lambda       -0.1082882E-01
   maximum displ.:     0.0353712 α      in ANC's #42, #5, #89, ...

........................................................................
.............................. CYCLE    2 ..............................
........................................................................
     iter. time                 ...        0 min,  0.001 sec
 * total energy  :    -6.2300018 Eh     change       -0.7257214E-02 Eh
   gradient norm :     0.0618981 Eh/α   predicted    -0.5473138E-02 ( -24.58%)
   displ. norm   :     0.0564268 α      lambda       -0.2688318E-02
   maximum displ.:     0.0151822 α      in ANC's #54, #60, #89, ...

........................................................................
.............................. CYCLE    3 ..............................
........................................................................
     iter. time                 ...        0 min,  0.001 sec
 * total energy  :    -6.2315186 Eh     change       -0.1516770E-02 Eh
   gradient norm :     0.0175415 Eh/α   predicted    -0.1348478E-02 ( -11.10%)
   displ. norm   :     0.0243873 α      lambda       -0.2472097E-03
   maximum displ.:     0.0094373 α      in ANC's #36, #18, #29, ...

........................................................................
.............................. CYCLE    4 ..............................
........................................................................
     iter. time                 ...        0 min,  0.001 sec
 * total energy  :    -6.2316988 Eh     change       -0.1802407E-03 Eh
   gradient norm :     0.0096748 Eh/α   predicted    -0.1292523E-03 ( -28.29%)
   displ. norm   :     0.0228418 α      lambda       -0.1165357E-03
   maximum displ.:     0.0092444 α      in ANC's #36, #18, #29, ...

........................................................................
.............................. CYCLE    5 ..............................
........................................................................
     iter. time                 ...        0 min,  0.000 sec
 * total energy  :    -6.2317694 Eh     change       -0.7056475E-04 Eh
   gradient norm :     0.0037483 Eh/α   predicted    -0.5831100E-04 ( -17.37%)
   displ. norm   :     0.0113361 α      lambda       -0.2312542E-04
   maximum displ.:     0.0052465 α      in ANC's #29, #36, #18, ...

........................................................................
.............................. CYCLE    6 ..............................
........................................................................
     iter. time                 ...        0 min,  0.000 sec
 * total energy  :    -6.2317866 Eh     change       -0.1722595E-04 Eh
   gradient norm :     0.0029041 Eh/α   predicted    -0.1175580E-04 ( -31.76%)
   displ. norm   :     0.0132289 α      lambda       -0.1869547E-04
   maximum displ.:     0.0062193 α      in ANC's #29, #25, #36, ...

........................................................................
.............................. CYCLE    7 ..............................
........................................................................
     iter. time                 ...        0 min,  0.000 sec
 * total energy  :    -6.2317987 Eh     change       -0.1205667E-04 Eh
   gradient norm :     0.0024090 Eh/α   predicted    -0.9359024E-05 ( -22.37%)
   displ. norm   :     0.0068640 α      lambda       -0.5777802E-05
   maximum displ.:     0.0029714 α      in ANC's #29, #25, #22, ...

........................................................................
.............................. CYCLE    8 ..............................
........................................................................
     iter. time                 ...        0 min,  0.000 sec
 * total energy  :    -6.2318027 Eh     change       -0.3984066E-05 Eh
   gradient norm :     0.0015145 Eh/α   predicted    -0.2911533E-05 ( -26.92%)
   displ. norm   :     0.0066258 α      lambda       -0.2656226E-05
   maximum displ.:     0.0022558 α      in ANC's #29, #25, #22, ...

........................................................................
.............................. CYCLE    9 ..............................
........................................................................
     iter. time                 ...        0 min,  0.000 sec
 * total energy  :    -6.2318045 Eh     change       -0.1847066E-05 Eh
   gradient norm :     0.0008336 Eh/α   predicted    -0.1345527E-05 ( -27.15%)
   displ. norm   :     0.0018184 α      lambda       -0.4278664E-06
   maximum displ.:     0.0008354 α      in ANC's #36, #29, #18, ...

........................................................................
.............................. CYCLE   10 ..............................
........................................................................
     iter. time                 ...        0 min,  0.000 sec
 * total energy  :    -6.2318050 Eh     change       -0.4766654E-06 Eh
   gradient norm :     0.0004077 Eh/α   predicted    -0.2397695E-06 ( -49.70%)
   displ. norm   :     0.0014453 α      lambda       -0.2197729E-06
   maximum displ.:     0.0004977 α      in ANC's #36, #37, #1, ...

   *** FAILED TO CONVERGE GEOMETRY OPTIMIZATION IN 10 ITERATIONS ***


 ANCopt (total)                0 d,  0 h,  0 min,  0.007 sec
 optimizer setup                ...        0 min,  0.000 sec (  0.804%)
 model hessian                  ...        0 min,  0.000 sec (  3.295%)
 ANC generation                 ...        0 min,  0.001 sec (  8.615%)
 coordinate transformation      ...        0 min,  0.000 sec (  0.415%)
 single point calculation       ...        0 min,  0.006 sec ( 76.097%)
 optimization log               ...        0 min,  0.000 sec (  5.437%)
 hessian update                 ...        0 min,  0.000 sec (  0.630%)
 rational function              ...        0 min,  0.000 sec (  2.644%)

================
 final structure:
================
ATOM      1  C   GLY A  12      -0.796  -9.127  -2.994  1.00  0.00           C  
ATOM      2  O   GLY A  12      -1.892  -8.741  -2.699  1.00  0.00           O  
ATOM      3  N   GLY A  13      -0.004  -8.493  -3.906  1.00  0.00           N  
ATOM      4  CA  GLY A  13       1.320  -8.901  -4.372  1.00  0.00           C  
ATOM      5  C   GLY A  13       1.537  -8.513  -5.812  1.00  0.00           C  
ATOM      6  O   GLY A  13       0.613  -8.601  -6.593  1.00  0.00           O  
ATOM      7  H   GLY A  13      -0.378  -7.677  -4.388  1.00  0.00           H  
ATOM      8  HA2 GLY A  13       2.079  -8.453  -3.728  1.00  0.00           H  
ATOM      9  HA3 GLY A  13       1.409  -9.987  -4.295  1.00  0.00           H  
ATOM     10  N   GLY A  14       2.788  -8.097  -6.217  1.00  0.00           N  
ATOM     11  CA  GLY A  14       3.005  -7.602  -7.563  1.00  0.00           C  
ATOM     12  C   GLY A  14       3.149  -6.101  -7.573  1.00  0.00           C  
ATOM     13  O   GLY A  14       2.230  -5.458  -7.106  1.00  0.00           O  
ATOM     14  H   GLY A  14       3.512  -7.858  -5.539  1.00  0.00           H  
ATOM     15  HA2 GLY A  14       3.861  -8.110  -8.009  1.00  0.00           H  
ATOM     16  HA3 GLY A  14       2.123  -7.875  -8.155  1.00  0.00           H  
ATOM     17  N   GLY A  15       4.254  -5.428  -8.075  1.00  0.00           N  
ATOM     18  CA  GLY A  15       5.425  -5.995  -8.751  1.00  0.00           C  
ATOM     19  C   GLY A  15       5.417  -5.680 -10.222  1.00  0.00           C  
ATOM     20  O   GLY A  15       4.639  -6.269 -10.941  1.00  0.00           O  
ATOM     21  H   GLY A  15       4.199  -4.415  -8.143  1.00  0.00           H  
ATOM     22  HA2 GLY A  15       6.331  -5.602  -8.280  1.00  0.00           H  
ATOM     23  HA3 GLY A  15       5.453  -7.077  -8.615  1.00  0.00           H  
ATOM     24  N   GLY A  16       6.287  -4.728 -10.713  1.00  0.00           N  
ATOM     25  CA  GLY A  16       6.178  -4.244 -12.082  1.00  0.00           C  
ATOM     26  C   GLY A  16       5.810  -2.777 -12.099  1.00  0.00           C  
ATOM     27  O   GLY A  16       4.859  -2.436 -11.444  1.00  0.00           O  
ATOM     28  H   GLY A  16       6.796  -4.108 -10.081  1.00  0.00           H  
ATOM     29  HA2 GLY A  16       7.117  -4.441 -12.608  1.00  0.00           H  
ATOM     30  HA3 GLY A  16       5.392  -4.825 -12.574  1.00  0.00           H  
ATOM     31  N   GLY A  17       6.559  -1.846 -12.840  1.00  0.00           N  
ATOM     32  CA  GLY A  17       7.733  -2.015 -13.565  1.00  0.00           C  
ATOM     33  H   GLY A  17       6.210  -0.874 -12.812  1.00  0.00           H  
ATOM     34  HA2 GLY A  17       8.535  -2.351 -12.888  1.00  0.00           H  
ATOM     35  HA3 GLY A  17       7.637  -2.819 -14.303  1.00  0.00           H  
END

 Bond Distances (Angstroems)
 ---------------------------
C1-O2=1.1989         C1-N3=1.3646         O2-C1=1.1989         N3-C1=1.3646         N3-C4=1.4614         N3-H7=1.0197         
C4-N3=1.4614         C4-C5=1.5068         C4-H8=1.0908         C4-H9=1.0933         C5-C4=1.5068         C5-O6=1.2127         
C5-N10=1.3792        O6-C5=1.2127         H7-N3=1.0197         H8-C4=1.0908         H9-C4=1.0933         N10-C5=1.3792        
N10-C11=1.4510       N10-H14=1.0208       C11-N10=1.4510       C11-C12=1.5076       C11-H15=1.0911       C11-H16=1.0964       
C12-C11=1.5076       C12-O13=1.2145       C12-N17=1.3875       O13-C12=1.2145       H14-N10=1.0208       H15-C11=1.0911       
H16-C11=1.0964       N17-C12=1.3875       N17-C18=1.4658       N17-H21=1.0168       C18-N17=1.4658       C18-C19=1.5045       
C18-H22=1.0947       C18-H23=1.0910       C19-C18=1.5045       C19-O20=1.2121       C19-N24=1.3803       O20-C19=1.2121       
H21-N17=1.0168       H22-C18=1.0947       H23-C18=1.0910       N24-C19=1.3803       N24-C25=1.4562       N24-H28=1.0208       
C25-N24=1.4562       C25-C26=1.5127       C25-H29=1.0940       C25-H30=1.0938       C26-C25=1.5127       C26-O27=1.2041       
C26-N31=1.4064       O27-C26=1.2041       H28-N24=1.0208       H29-C25=1.0940       H30-C25=1.0938       N31-C26=1.4064       
N31-C32=1.3904       N31-H33=1.0331       C32-N31=1.3904       C32-H34=1.1023       C32-H35=1.0951       H33-N31=1.0331       
H34-C32=1.1023       H35-C32=1.0951       
 C  H  Rav=1.0943 sigma=0.0032  Rmin=1.0908  Rmax=1.1023    10
 C  C  Rav=1.5079 sigma=0.0030  Rmin=1.5045  Rmax=1.5127     4
 N  H  Rav=1.0223 sigma=0.0056  Rmin=1.0168  Rmax=1.0331     5
 N  C  Rav=1.4143 sigma=0.0377  Rmin=1.3646  Rmax=1.4658    10
 O  C  Rav=1.2085 sigma=0.0060  Rmin=1.1989  Rmax=1.2145     5

 selected bond angles (degree)
 --------------------
N3-C1-O2=123.06                C4-N3-C1=127.58                H7-N3-C1=118.34                H7-N3-C4=113.90                
C5-C4-N3=111.31                H8-C4-N3=109.10                H8-C4-C5=111.03                H9-C4-N3=109.17                
H9-C4-C5=108.14                H9-C4-H8=108.01                O6-C5-C4=119.19                N10-C5-C4=119.22               
N10-C5-O6=121.57               C11-N10-C5=120.73              H14-N10-C5=121.31              H14-N10-C11=115.47             

 selected dihedral angles (degree)
 ---------------------------------
C4-N3-C1-O2=182.36            H7-N3-C1-O2=357.22            C5-C4-N3-C1=147.09            C5-C4-N3-H7=332.04            
H8-C4-N3-C1=269.96            H8-C4-N3-H7= 94.91            H9-C4-N3-C1= 27.79            H9-C4-N3-H7=212.73            
O6-C5-C4-N3=322.07            O6-C5-C4-H8=200.31            O6-C5-C4-H9= 81.98            N10-C5-C4-N3=143.53           
N10-C5-C4-H8= 21.77           N10-C5-C4-H9=263.44           C11-N10-C5-C4=185.65          C11-N10-C5-O6=  7.15          
H14-N10-C5-C4=346.95          H14-N10-C5-O6=168.44          
           -------------------------------------------------
          |                Final Singlepoint                |
           -------------------------------------------------
         :::::::::::::::::::::::::::::::::::::::::::::::::::::
         ::                     SUMMARY                     ::
         :::::::::::::::::::::::::::::::::::::::::::::::::::::
         :: total energy              -6.231805198892 Eh    ::
         :: total w/o Gsolv           -6.193054304619 Eh    ::
         :: total w/o Gsasa/hb        -6.227280368109 Eh    ::
         :: gradient norm              0.000175233783 Eh/a0 ::
         ::.................................................::
         :: bond energy               -6.291625245043 Eh    ::
         :: angle energy               0.029948973291 Eh    ::
         :: torsion energy             0.023119972167 Eh    ::
         :: repulsion energy           0.379947137091 Eh    ::
         :: electrostat energy        -0.309021942203 Eh    ::
         :: dispersion energy         -0.022712325097 Eh    ::
         :: HB energy                 -0.000516455249 Eh    ::
         :: XB energy                  0.000000000000 Eh    ::
         :: bonded atm energy         -0.006139904432 Eh    ::
         :: external energy            0.000000000000 Eh    ::
         :: -> Gsolv                  -0.038750894273 Eh    ::
         ::    -> Gborn               -0.034226063490 Eh    ::
         ::    -> Gsasa                0.010118433786 Eh    ::
         ::    -> Ghb                 -0.015008203823 Eh    ::
         ::    -> Gshift               0.000364939255 Eh    ::
         :: add. restraining           0.003945484857 Eh    ::
         :: total charge               0.000000000000 e     ::
         ::.................................................::
         :: atomisation energy         0.000000000000 Eh    ::
         :::::::::::::::::::::::::::::::::::::::::::::::::::::

           -------------------------------------------------
          |                Property Printout                |
           -------------------------------------------------
           -------------------------------------------------
          |                Geometry Summary                 |
           -------------------------------------------------

      molecular mass/u    :      285.2570109
   center of mass at/Å    :        3.4433892      -6.0430689      -8.2805364
  moments of inertia/u·Å² :        0.3827930E+03   0.6414943E+04   0.6576870E+04
rotational constants/cm⁻¹ :        0.4403850E-01   0.2627869E-02   0.2563169E-02

 * 29 selected distances

     #   Z          #   Z                                           value/Å
     1   6  C       3   7  N                                      1.3645640
     3   7  N       4   6  C                                      1.4614417
     5   6  C       6   8  O                                      1.2127316
     3   7  N       7   1  H                                      1.0197339
     4   6  C       8   1  H                                      1.0907740
     4   6  C       9   1  H                                      1.0933416
     5   6  C      10   7  N                                      1.3791762
    10   7  N      11   6  C                                      1.4510139
    12   6  C      13   8  O                                      1.2145435
    10   7  N      14   1  H                                      1.0207677
    11   6  C      15   1  H                                      1.0910593
    11   6  C      16   1  H                                      1.0963550
    12   6  C      17   7  N                                      1.3875345
    17   7  N      18   6  C                                      1.4657559 (max)
    19   6  C      20   8  O                                      1.2120878
    17   7  N      21   1  H                                      1.0168378 (min)
    18   6  C      22   1  H                                      1.0947488
    18   6  C      23   1  H                                      1.0910425
    19   6  C      24   7  N                                      1.3802528
    24   7  N      25   6  C                                      1.4561538
    26   6  C      27   8  O                                      1.2041077
    24   7  N      28   1  H                                      1.0207717
    25   6  C      29   1  H                                      1.0940457
    25   6  C      30   1  H                                      1.0937694
    26   6  C      31   7  N                                      1.4063599
    31   7  N      32   6  C                                      1.3904414
    31   7  N      33   1  H                                      1.0331402
    32   6  C      34   1  H                                      1.1022851
    32   6  C      35   1  H                                      1.0951223

 * 4 distinct bonds (by element types)

   Z      Z             #   av. dist./Å        max./Å        min./Å
   1 H    6 C          10     1.0942544     1.1022851     1.0907740
   1 H    7 N           5     1.0222503     1.0331402     1.0168378
   6 C    7 N          10     1.4142694     1.4657559     1.3645640
   6 C    8 O           4     1.2108677     1.2145435     1.2041077


optimized geometry written to: xtbopt.pdb


           -------------------------------------------------
          | TOTAL ENERGY               -6.231805198892 Eh   |
          | GRADIENT NORM               0.000175233783 Eh/α |
           -------------------------------------------------
########################################################################
[WARNING] Runtime exception occurred
-1- gfnff_setup: Could not read topology file.
########################################################################

------------------------------------------------------------------------
 unit  open   action     filename
   10 false : read       xtb_settings.inp
   10 false : read       substructure_77.pdb
   10 false : read       xtb_settings.inp
   10 false : written    gfnff_topo
   10 false : written    gfnff_adjacency
   10 false : written    gfnff_charges
   10 false : deleted    .xtboptok
   10 false : replaced   xtbopt.log
   11 false : created    .xtboptok
   11 false : replaced   gfnff_charges
   10 false : replaced   xtbopt.pdb

------------------------------------------------------------------------
 * finished run on 2025/05/27 at 09:37:58.319     
------------------------------------------------------------------------
 total:
 * wall-time:     0 d,  0 h,  0 min,  0.012 sec
 *  cpu-time:     0 d,  0 h,  0 min,  0.012 sec
 * ratio c/w:     0.999 speedup
 SCF:
 * wall-time:     0 d,  0 h,  0 min,  0.001 sec
 *  cpu-time:     0 d,  0 h,  0 min,  0.001 sec
 * ratio c/w:     0.999 speedup
 ANC optimizer:
 * wall-time:     0 d,  0 h,  0 min,  0.008 sec
 *  cpu-time:     0 d,  0 h,  0 min,  0.008 sec
 * ratio c/w:     0.999 speedup

