35
 energy: -6.222863638132 gnorm: 0.166721901678 xtb: 6.6.1 (8d0f1dd)
 C          -0.80600000000000       -9.16900000000000       -3.01200000000000
 O          -1.89800000000000       -8.73100000000000       -2.71300000000000
 N          -0.00700000000000       -8.49500000000000       -3.91700000000000
 C           1.32400000000000       -8.88700000000000       -4.36200000000000
 C           1.53900000000000       -8.52100000000000       -5.81400000000000
 O           0.62000000000000       -8.62200000000000       -6.59800000000000
 H          -0.38300000000000       -7.68200000000000       -4.39700000000000
 H           2.07300000000000       -8.44500000000000       -3.72900000000000
 H           1.41500000000000       -9.98700000000000       -4.29100000000000
 N           2.78700000000000       -8.09200000000000       -6.21500000000000
 C           3.00500000000000       -7.60700000000000       -7.56600000000000
 C           3.14700000000000       -6.10100000000000       -7.57900000000000
 O           2.22500000000000       -5.45800000000000       -7.11800000000000
 H           3.50500000000000       -7.83900000000000       -5.53600000000000
 H           3.86300000000000       -8.11000000000000       -8.00500000000000
 H           2.12400000000000       -7.87800000000000       -8.15400000000000
 N           4.25300000000000       -5.42800000000000       -8.07800000000000
 C           5.42800000000000       -5.98900000000000       -8.74400000000000
 C           5.41900000000000       -5.68200000000000      -10.22200000000000
 O           4.64300000000000       -6.27300000000000      -10.94200000000000
 H           4.19600000000000       -4.41600000000000       -8.15000000000000
 H           6.33100000000000       -5.60100000000000       -8.27900000000000
 H           5.45300000000000       -7.07700000000000       -8.61400000000000
 N           6.28800000000000       -4.72700000000000      -10.71200000000000
 C           6.17800000000000       -4.25200000000000      -12.08800000000000
 C           5.81800000000000       -2.78400000000000      -12.10400000000000
 O           4.86300000000000       -2.43600000000000      -11.44000000000000
 H           6.79400000000000       -4.10500000000000      -10.08000000000000
 H           7.12100000000000       -4.43900000000000      -12.60600000000000
 H           5.39500000000000       -4.82600000000000      -12.57200000000000
 N           6.51400000000000       -1.84100000000000      -12.84400000000000
 C           7.76000000000000       -2.02200000000000      -13.57400000000000
 H           6.22200000000000       -0.86200000000000      -12.79700000000000
 H           8.53900000000000       -2.34700000000000      -12.87300000000000
 H           7.62000000000000       -2.82700000000000      -14.31400000000000
35
 energy: -6.230086981878 gnorm: 0.061869210084 xtb: 6.6.1 (8d0f1dd)
 C          -0.80231694453116       -9.15615095507415       -3.01152032947423
 O          -1.89196929456242       -8.73544737080057       -2.70508849260006
 N          -0.01174566255261       -8.49709276516386       -3.91812207726646
 C           1.32020238797607       -8.89306090914267       -4.36702204098245
 C           1.53862093256806       -8.52118224425450       -5.81379820636792
 O           0.62083617327724       -8.62377272623850       -6.59888247807291
 H          -0.38767893870733       -7.68499050970597       -4.40301667722137
 H           2.07261884370734       -8.44252685404631       -3.72772134090547
 H           1.41489002353923       -9.98503052461020       -4.28804232475385
 N           2.78705010834356       -8.09157847506817       -6.21418790968292
 C           3.00517807168505       -7.60399718494063       -7.56388997758679
 C           3.14640256886868       -6.10091134299409       -7.57906764004340
 O           2.22499669618715       -5.45790688186335       -7.11774320965705
 H           3.50460763725962       -7.83774322681046       -5.53470157802185
 H           3.86393528338632       -8.11015177678353       -8.00385192656215
 H           2.12421085644744       -7.87824455925533       -8.15371424014967
 N           4.25188904922715       -5.42859931709866       -8.07980970468116
 C           5.42589695522919       -5.99271891061306       -8.74768925548880
 C           5.41939279924899       -5.68273520116318      -10.22240814427051
 O           4.64366664872629       -6.27237001853337      -10.94308316536592
 H           4.19561745044876       -4.41609573538996       -8.15234156633170
 H           6.33179880842069       -5.60286441798686       -8.27882971392829
 H           5.45089425602202       -7.07722572417880       -8.61561054222846
 N           6.28930040880970       -4.72861145564846      -10.71128970300033
 C           6.17989659041052       -4.25019822224520      -12.08387828619206
 C           5.81626736612866       -2.78538589064959      -12.10286246388955
 O           4.86571288232253       -2.43635530626180      -11.44003552070214
 H           6.79580708717974       -4.10745276057018      -10.07934632054636
 H           7.12201358484517       -4.44013493411505      -12.60539573188044
 H           5.39483466164587       -4.82767424075838      -12.57254326120050
 N           6.53403032363779       -1.84562178985805      -12.84881516575665
 C           7.73902914880971       -2.01906176410643      -13.56577087630056
 H           6.22513972050757       -0.86870598600171      -12.79899852603906
 H           8.53310937480484       -2.34093815165865      -12.88127319774551
 H           7.62386414068259       -2.81546186641032      -14.30864840510343
35
 energy: -6.231601662484 gnorm: 0.017553417687 xtb: 6.6.1 (8d0f1dd)
 C          -0.80271050907497       -9.14431283475985       -3.01039625099304
 O          -1.89072438962948       -8.73792689148003       -2.70178769539330
 N          -0.01286188801410       -8.49967730687649       -3.91795723246558
 C           1.31919241404640       -8.89897186099666       -4.37108524277118
 C           1.53911183679454       -8.52131913082776       -5.81339968085915
 O           0.62134742578080       -8.62466243579003       -6.59884049716621
 H          -0.38733057726228       -7.68639583930163       -4.40413416151996
 H           2.07265257593286       -8.44257798732673       -3.72766291708309
 H           1.41640260431938       -9.98532877244718       -4.28664692099749
 N           2.78744792397721       -8.09199359551512       -6.21422964460815
 C           3.00517588082864       -7.60205709210481       -7.56277275150666
 C           3.14611345461057       -6.10100254488670       -7.57905513385204
 O           2.22497004703510       -5.45798905345126       -7.11748011194700
 H           3.50492606200109       -7.83792172536639       -5.53462878022875
 H           3.86362488809705       -8.11057502535375       -8.00422274910865
 H           2.12438398002327       -7.87874795435316       -8.15379008231894
 N           4.25117076188364       -5.42882335855793       -8.08085134967231
 C           5.42460815539764       -5.99512123562955       -8.75041367882620
 C           5.41945477801467       -5.68254733276459      -10.22262914139621
 O           4.64411627777804       -6.27219056837611      -10.94358514053548
 H           4.19515334819002       -4.41606346656752       -8.15362300634175
 H           6.33154640316096       -5.60309104139202       -8.27853330520667
 H           5.45070441327204       -7.07729813868826       -8.61582255463883
 N           6.28897105347903       -4.72833113877325      -10.71128225960936
 C           6.17977967857730       -4.24644563613543      -12.08118863541827
 C           5.81160849166484       -2.78266854755521      -12.10064843447436
 O           4.86361925523601       -2.43531333060845      -11.44009683561915
 H           6.79549833123475       -4.10722617801167      -10.07919304477051
 H           7.12023663770952       -4.44008775470916      -12.60627306527836
 H           5.39397620742084       -4.82679485618094      -12.57265792275272
 N           6.54923510177666       -1.84759402784656      -12.84900031554381
 C           7.73050225702601       -2.01564655941864      -13.56321608616201
 H           6.21842642375632       -0.87143298337434      -12.80251896544978
 H           8.53323458750796       -2.34414297380794      -12.88621559617125
 H           7.63443610744767       -2.81572082076487      -14.30316080931376
35
 energy: -6.231781447499 gnorm: 0.009671054989 xtb: 6.6.1 (8d0f1dd)
 C          -0.80342902041999       -9.14006749960386       -3.00932738105435
 O          -1.89249565705296       -8.73984694371754       -2.70363161773328
 N          -0.01169355570536       -8.50062180505131       -3.91750048517828
 C           1.31974698710756       -8.90037086653971       -4.37191634313722
 C           1.53953645113998       -8.52136414725630       -5.81322704701444
 O           0.62145004913355       -8.62470057558776       -6.59866257517859
 H          -0.38614476180818       -7.68664401957917       -4.40322417800947
 H           2.07273236463957       -8.44300000733981       -3.72786509408217
 H           1.41706282449046       -9.98587095104139       -4.28657161325240
 N           2.78764768092830       -8.09234935513203       -6.21450063217665
 C           3.00514451196906       -7.60178087314864       -7.56272095943748
 C           3.14622315372963       -6.10102623834563       -7.57896842078053
 O           2.22503918825907       -5.45802040882288       -7.11736369175906
 H           3.50516004494099       -7.83832325804997       -5.53489650745863
 H           3.86313358041148       -8.11073167409953       -8.00486578535049
 H           2.12444213603844       -7.87890437909410       -8.15390459395560
 N           4.25115944391803       -5.42861927604323       -8.08071244484186
 C           5.42447425848437       -5.99539154908360       -8.75083821737996
 C           5.41938790356595       -5.68229274265701      -10.22251552958659
 O           4.64399831785674       -6.27234002461898      -10.94327536055010
 H           4.19500061911569       -4.41587196714827       -8.15343906955892
 H           6.33090528015545       -5.60238490175720       -8.27827432698442
 H           5.45149043043806       -7.07727930844372       -8.61492850642771
 N           6.28842403978625       -4.72797955154074      -10.71158758576200
 C           6.17914868844836       -4.24477367711360      -12.08087896551985
 C           5.81007297456411       -2.77986366911223      -12.09914766870294
 O           4.86240722590748       -2.43452884903563      -11.43969291757405
 H           6.79504891895754       -4.10682765075007      -10.07938065717796
 H           7.11850419685286       -4.44014993988582      -12.60743667056616
 H           5.39323610919599       -4.82558492665979      -12.57253815170173
 N           6.55368961601839       -1.84748678223137      -12.84618112802895
 C           7.73118613526314       -2.01476936209559      -13.56404809556676
 H           6.21385626873090       -0.87225309229791      -12.80555785402149
 H           8.53457778996880       -2.34790748231766      -12.88749427141519
 H           7.63787580497027       -2.81807224479798      -14.30192565307475
35
 energy: -6.231851165268 gnorm: 0.003725205804 xtb: 6.6.1 (8d0f1dd)
 C          -0.80366247996370       -9.13667480947389       -3.00783417750701
 O          -1.89538959183454       -8.74287835462956       -2.70752717024345
 N          -0.00993123817702       -8.50092851554056       -3.91659240081832
 C           1.32046600998395       -8.90077836954039       -4.37199351832828
 C           1.53982339240797       -8.52132454430033       -5.81307770103174
 O           0.62141272460457       -8.62442209770751       -6.59845510011184
 H          -0.38489029695817       -7.68645357989357       -4.40187205317351
 H           2.07301979816562       -8.44349833477672       -3.72802717760325
 H           1.41719377643610       -9.98632382118054       -4.28685611550992
 N           2.78775359883941       -8.09263708874642       -6.21479012667783
 C           3.00508024049017       -7.60178097772266       -7.56284619337043
 C           3.14645239783094       -6.10101036283494       -7.57883798323948
 O           2.22521284608530       -5.45799544377426       -7.11722400138650
 H           3.50536282611562       -7.83873341576447       -5.53519901828803
 H           3.86262650331164       -8.11084597348605       -8.00550363706256
 H           2.12437769059724       -7.87886498428664       -8.15398361263909
 N           4.25136020974572       -5.42829184120777       -8.08020285517662
 C           5.42453074056847       -5.99528290608412       -8.75084930155656
 C           5.41929981752874       -5.68218515405446      -10.22234004754371
 O           4.64371380819343       -6.27269359569983      -10.94271600756701
 H           4.19497818568851       -4.41558895517817       -8.15276490885510
 H           6.33016882909978       -5.60139130218338       -8.27806436278573
 H           5.45256833981710       -7.07719419890243       -8.61368388058438
 N           6.28792128103004       -4.72793432255928      -10.71204014006903
 C           6.17851188487529       -4.24390667971170      -12.08109672412736
 C           5.80963862692148       -2.77727571431898      -12.09790193419273
 O           4.86147598916498       -2.43431855455139      -11.43967258989573
 H           6.79480353603971       -4.10685902838099      -10.07975173127122
 H           7.11694299508989       -4.44043059648623      -12.60869361007733
 H           5.39253662990020       -4.82466679688764      -12.57253969744093
 N           6.55718583523026       -1.84700990505663      -12.84237224068876
 C           7.73257807718027       -2.01446633120839      -13.56483026867243
 H           6.21061550449761       -0.87328687197782      -12.80882524096465
 H           8.53564793222478       -2.35067936274339      -12.88815149114581
 H           7.63861357926863       -2.81938720914889      -14.30188298039369
35
 energy: -6.231868203710 gnorm: 0.002882490981 xtb: 6.6.1 (8d0f1dd)
 C          -0.80313155595288       -9.13519136058614       -3.00658207957845
 O          -1.89714830255936       -8.74507938287123       -2.71027691419945
 N          -0.00899848143209       -8.50049724395645       -3.91577877977517
 C           1.32068650407306       -8.90059058780401       -4.37177051637410
 C           1.53981076306065       -8.52127310812324       -5.81305008342106
 O           0.62132313739815       -8.62417303137263       -6.59836921126569
 H          -0.38447805669461       -7.68617133165311       -4.40129356562002
 H           2.07330603374499       -8.44377126878156       -3.72807353626437
 H           1.41691517260383       -9.98642070467548       -4.28713456233528
 N           2.78773499530800       -8.09271210876510       -6.21490171217715
 C           3.00502724627584       -7.60185946176168       -7.56294949083497
 C           3.14657719075749       -6.10099842329768       -7.57877887004061
 O           2.22533771572676       -5.45795468798469       -7.11714979638565
 H           3.50541781415595       -7.83888966602984       -5.53532739201885
 H           3.86246057163846       -8.11087818032423       -8.00569988928652
 H           2.12426361246456       -7.87874345842716       -8.15399142302287
 N           4.25154813509054       -5.42814780207150       -8.07981588241684
 C           5.42456922027131       -5.99517371678019       -8.75078257681004
 C           5.41925141773103       -5.68221933772644      -10.22229698034169
 O           4.64359327239030       -6.27292806601382      -10.94248025619365
 H           4.19506881481965       -4.41545564347775       -8.15222344726142
 H           6.32989051172342       -5.60097202134940       -8.27806817410850
 H           5.45303846906220       -7.07714355799347       -8.61319780393411
 N           6.28776790586541       -4.72804694873565      -10.71225833668375
 C           6.17829467299970       -4.24396046003856      -12.08133204565521
 C           5.80995314707310       -2.77656872761234      -12.09758026887087
 O           4.86098951016907       -2.43471318332419      -11.44019832584018
 H           6.79483317443581       -4.10710442545666      -10.07995290448236
 H           7.11655393686671       -4.44054572215801      -12.60908329603720
 H           5.39231681166479       -4.82452966112060      -12.57262701116700
 N           6.55853850002633       -1.84653827097963      -12.84044307424218
 C           7.73306154428179       -2.01468633910331      -13.56493949387623
 H           6.21008318415014       -0.87374789703598      -12.80995361460963
 H           8.53585767040978       -2.35110614239693      -12.88825174414435
 H           7.63768574040010       -2.81920807021132      -14.30238694072455
35
 energy: -6.231880210954 gnorm: 0.002420230675 xtb: 6.6.1 (8d0f1dd)
 C          -0.80201724333707       -9.13353657441870       -3.00474504114460
 O          -1.89918198232671       -8.74800850759759       -2.71370276677383
 N          -0.00806489404868       -8.49946847563888       -3.91454622893919
 C           1.32072701738950       -8.90032656356933       -4.37154403390023
 C           1.53968089694628       -8.52118410475001       -5.81305655559040
 O           0.62117830459960       -8.62385243472844       -6.59827745771494
 H          -0.38420564609926       -7.68574815347962       -4.40081505933569
 H           2.07368175708713       -8.44412383271415       -3.72812415656276
 H           1.41644395634140       -9.98645407773849       -4.28748553715351
 N           2.78767287552018       -8.09273467976397       -6.21497339248249
 C           3.00495551928852       -7.60192895309389       -7.56304444432383
 C           3.14669225941164       -6.10098050148498       -7.57871483487741
 O           2.22548116845433       -5.45788306951142       -7.11705914695110
 H           3.50544479411524       -7.83901059377132       -5.53543219790371
 H           3.86236220285247       -8.11088969226888       -8.00578848497874
 H           2.12409752596949       -7.87856062232216       -8.15396996328269
 N           4.25181090673512       -5.42805443511462       -8.07933423560289
 C           5.42457132923276       -5.99511643450030       -8.75075955571611
 C           5.41920055146511       -5.68227314016746      -10.22231975494269
 O           4.64358989473257       -6.27318797522523      -10.94238144413364
 H           4.19527976980390       -4.41535226007574       -8.15152720079518
 H           6.32976687775884       -5.60075339269878       -8.27819374750937
 H           5.45333964139400       -7.07711836148958       -8.61299093123497
 N           6.28768752626023       -4.72814970719195      -10.71240830993447
 C           6.17818963364457       -4.24423239012488      -12.08153942358692
 C           5.81050064554836       -2.77638495998791      -12.09744609541178
 O           4.86030149850312       -2.43545153484484      -11.44125493203859
 H           6.79491938733603       -4.10737807276520      -10.08009619091237
 H           7.11650361115323       -4.44058353135601      -12.60920297060507
 H           5.39221623064829       -4.82458434139242      -12.57274046466206
 N           6.55971115944837       -1.84583379149908      -12.83865608776045
 C           7.73324494204424       -2.01513783117747      -13.56496331199212
 H           6.21009370848869       -0.87398151416378      -12.81046505049127
 H           8.53584870395963       -2.35106107351373      -12.88835704848498
 H           7.63627546967886       -2.81867441585919      -14.30308394226992
35
 energy: -6.231884175844 gnorm: 0.001524678137 xtb: 6.6.1 (8d0f1dd)
 C          -0.80128991840376       -9.13279932667658       -3.00371632848652
 O          -1.90013600673824       -8.74961198017620       -2.71544196253225
 N          -0.00771421507627       -8.49861432359282       -3.91375076576534
 C           1.32061664906251       -8.90027758104096       -4.37154708844575
 C           1.53958318657762       -8.52111105227758       -5.81306367172910
 O           0.62109814850920       -8.62369824615640       -6.59822037483982
 H          -0.38416922870808       -7.68550624132009       -4.40069306064387
 H           2.07384175414230       -8.44431597959969       -3.72815750347455
 H           1.41621981482613       -9.98643443120544       -4.28761283339252
 N           2.78763629863286       -8.09269596603329       -6.21495506836953
 C           3.00492354663514       -7.60191493984630       -7.56304896445490
 C           3.14672198998997       -6.10095809608544       -7.57867598208761
 O           2.22552420332722       -5.45783259792226       -7.11702220537378
 H           3.50544302799433       -7.83901465201919       -5.53543978057201
 H           3.86236618448029       -8.11087033410831       -8.00574477531984
 H           2.12402867796148       -7.87847477558735       -8.15393689482668
 N           4.25196339698590       -5.42806277993001       -8.07909749926351
 C           5.42454501324953       -5.99515039674778       -8.75080015268152
 C           5.41918182168031       -5.68229015627958      -10.22237840016868
 O           4.64370188065507       -6.27330207543685      -10.94246876295484
 H           4.19545634057075       -4.41534490538889       -8.15119275827391
 H           6.32987965946840       -5.60088271528164       -8.27833852277361
 H           5.45327061068586       -7.07714105336095       -8.61316335950131
 N           6.28770133364448       -4.72813592034606      -10.71239252121468
 C           6.17823712219090       -4.24438390524182      -12.08155550243048
 C           5.81076637502029       -2.77667455955877      -12.09749050646101
 O           4.85991965984861       -2.43584478230365      -11.44192925201743
 H           6.79495068881136       -4.10741600022922      -10.08008735517636
 H           7.11667460134374       -4.44055288079306      -12.60908042354249
 H           5.39225254276230       -4.82468293405737      -12.57277217639792
 N           6.55993956740995       -1.84544552797316      -12.83823119298090
 C           7.73307637904380       -2.01538656890569      -13.56503171168192
 H           6.21036388448938       -0.87381752937196      -12.81012011395115
 H           8.53571804204983       -2.35091323647604      -12.88847994705061
 H           7.63570696687683       -2.81844154866960      -14.30336258116356
35
 energy: -6.231886026727 gnorm: 0.000836705904 xtb: 6.6.1 (8d0f1dd)
 C          -0.80065454326269       -9.13223910978071       -3.00285207127099
 O          -1.90096587097956       -8.75115562985742       -2.71701244776217
 N          -0.00742787584797       -8.49752490578541       -3.91282487365069
 C           1.32043816807971       -8.90038403931569       -4.37171208294333
 C           1.53952488414799       -8.52100776863853       -5.81303583399240
 O           0.62104988363342       -8.62358759211109       -6.59813875679968
 H          -0.38421239456895       -7.68532615975865       -4.40069484787211
 H           2.07391278251833       -8.44446697439656       -3.72819021031268
 H           1.41612305767163       -9.98638099767337       -4.28761113054484
 N           2.78762512769532       -8.09260603692342       -6.21487331714687
 C           3.00491442390969       -7.60183073846484       -7.56298878417696
 C           3.14672755973352       -6.10090854366402       -7.57861977450790
 O           2.22550593772573       -5.45777959391426       -7.11701808297785
 H           3.50544244735120       -7.83894614732237       -5.53538726100484
 H           3.86239400855517       -8.11082940131642       -8.00565203749397
 H           2.12401999797335       -7.87843184691178       -8.15388046141809
 N           4.25212279638275       -5.42811482093346       -8.07889491148098
 C           5.42450617746536       -5.99524127839344       -8.75088797824777
 C           5.41916652973148       -5.68229415724538      -10.22246730258941
 O           4.64388514068342       -6.27339283307641      -10.94265972199972
 H           4.19568605061476       -4.41538115837398       -8.15095765222543
 H           6.33016320782182       -5.60127740130801       -8.27854791688505
 H           5.45296021090523       -7.07721343066172       -8.61355976325154
 N           6.28774256166508       -4.72805818871390      -10.71229920107796
 C           6.17835390861861       -4.24442384826268      -12.08147235341286
 C           5.81087979931594       -2.77716058567861      -12.09758670200101
 O           4.85964736495389       -2.43604314801605      -11.44243859129262
 H           6.79493871661934       -4.10731781605758      -10.08001490437830
 H           7.11687774085112       -4.44052447919380      -12.60890993964301
 H           5.39232993693024       -4.82476883569240      -12.57275720642858
 N           6.55976058603348       -1.84518998715649      -12.83840215082558
 C           7.73267295637929       -2.01548647975559      -13.56520855311775
 H           6.21074835134619       -0.87342222706539      -12.80931783471394
 H           8.53552707777055       -2.35085522839882      -12.88870390533017
 H           7.63561329157554       -2.81842861018177      -14.30342143722290
35
 energy: -6.231886498718 gnorm: 0.000409879020 xtb: 6.6.1 (8d0f1dd)
 C          -0.80083566592038       -9.13245953451100       -3.00309733717140
 O          -1.90086216190960       -8.75093899034657       -2.71680866143207
 N          -0.00739437903153       -8.49747663381967       -3.91278705758677
 C           1.32045952019961       -8.90041958374745       -4.37173798726564
 C           1.53956865421021       -8.52100423591418       -5.81300848447076
 O           0.62108044795702       -8.62362580537219       -6.59813117729796
 H          -0.38426197997020       -7.68542095570131       -4.40078048236354
 H           2.07386238371941       -8.44441905530473       -3.72818186612340
 H           1.41620644746353       -9.98637202320259       -4.28754553617147
 N           2.78764134334467       -8.09258575681898       -6.21485261103454
 C           3.00493022611059       -7.60181494319207       -7.56296716086770
 C           3.14672507293856       -6.10089376832644       -7.57861025112547
 O           2.22546648987303       -5.45779105093392       -7.11704884431181
 H           3.50544657070109       -7.83891232034677       -5.53536278187364
 H           3.86239242482175       -8.11082124794425       -8.00565082758274
 H           2.12405846281398       -7.87846293077645       -8.15387658015977
 N           4.25212501432335       -5.42812714536899       -8.07891116639277
 C           5.42451963612580       -5.99523674750689       -8.75087780666498
 C           5.41916081588818       -5.68228945448957      -10.22246707095986
 O           4.64385301762879       -6.27335746862270      -10.94266624317501
 H           4.19570314854949       -4.41540158750305       -8.15103233090594
 H           6.33022512896673       -5.60139284250959       -8.27856079975208
 H           5.45285690052400       -7.07723129500630       -8.61361077425313
 N           6.28774047845879       -4.72804947606823      -10.71228723861711
 C           6.17835292259750       -4.24435947879499      -12.08145614664332
 C           5.81076145892792       -2.77714761138684      -12.09761695270381
 O           4.85981139664972       -2.43585828477244      -11.44216969581053
 H           6.79491896412407       -4.10727263686949      -10.08000998343395
 H           7.11682164520479       -4.44053510038193      -12.60894745596526
 H           5.39233204213508       -4.82474658300093      -12.57273853573260
 N           6.55942984953991       -1.84536194439301      -12.83875708718897
 C           7.73267975314770       -2.01536171692884      -13.56523444028333
 H           6.21078926250400       -0.87338196149934      -12.80924448133101
 H           8.53554229557626       -2.35090083701200      -12.88866946379068
 H           7.63589241180617       -2.81856899162630      -14.30329467955697
