      -----------------------------------------------------------      
     |                   =====================                   |     
     |                           x T B                           |     
     |                   =====================                   |     
     |                         S. Grimme                         |     
     |          Mulliken Center for Theoretical Chemistry        |     
     |                    University of Bonn                     |     
      -----------------------------------------------------------      

   * xtb version 6.6.1 (8d0f1dd) compiled by 'conda@1efc2f54142f' on 2023-08-01

   xtb is free software: you can redistribute it and/or modify it under
   the terms of the GNU Lesser General Public License as published by
   the Free Software Foundation, either version 3 of the License, or
   (at your option) any later version.
   
   xtb is distributed in the hope that it will be useful,
   but WITHOUT ANY WARRANTY; without even the implied warranty of
   MERCHANTABILITY or FITNESS FOR A PARTICULAR PURPOSE.  See the
   GNU Lesser General Public License for more details.
   
   Cite this work as:
   * C. Bannwarth, E. Caldeweyher, S. Ehlert, A. Hansen, P. Pracht,
     J. Seibert, S. Spicher, S. Grimme, WIREs Comput. Mol. Sci., 2020, 11,
     e01493. DOI: 10.1002/wcms.1493
   
   for GFN2-xTB:
   * C. Bannwarth, S. Ehlert and S. Grimme., J. Chem. Theory Comput., 2019,
     15, 1652-1671. DOI: 10.1021/acs.jctc.8b01176
   for GFN1-xTB:
   * S. Grimme, C. Bannwarth, P. Shushkov, J. Chem. Theory Comput., 2017,
     13, 1989-2009. DOI: 10.1021/acs.jctc.7b00118
   for GFN0-xTB:
   * P. Pracht, E. Caldeweyher, S. Ehlert, S. Grimme, ChemRxiv, 2019, preprint.
     DOI: 10.26434/chemrxiv.8326202.v1
   for GFN-FF:
   * S. Spicher and S. Grimme, Angew. Chem. Int. Ed., 2020, 59, 15665-15673.
     DOI: 10.1002/anie.202004239
   
   for ALPB and GBSA implicit solvation:
   * S. Ehlert, M. Stahn, S. Spicher, S. Grimme, J. Chem. Theory Comput.,
     2021, 17, 4250-4261. DOI: 10.1021/acs.jctc.1c00471
   
   for DFT-D4:
   * E. Caldeweyher, C. Bannwarth and S. Grimme, J. Chem. Phys., 2017,
     147, 034112. DOI: 10.1063/1.4993215
   * E. Caldeweyher, S. Ehlert, A. Hansen, H. Neugebauer, S. Spicher,
     C. Bannwarth and S. Grimme, J. Chem. Phys., 2019, 150, 154122.
     DOI: 10.1063/1.5090222
   * E. Caldeweyher, J.-M. Mewes, S. Ehlert and S. Grimme, Phys. Chem. Chem. Phys.
     2020, 22, 8499-8512. DOI: 10.1039/D0CP00502A
   
   for sTDA-xTB:
   * S. Grimme and C. Bannwarth, J. Chem. Phys., 2016, 145, 054103.
     DOI: 10.1063/1.4959605
   
   in the mass-spec context:
   * V. Asgeirsson, C. Bauer and S. Grimme, Chem. Sci., 2017, 8, 4879.
     DOI: 10.1039/c7sc00601b
   * J. Koopman and S. Grimme, ACS Omega 2019, 4, 12, 15120-15133.
     DOI: 10.1021/acsomega.9b02011
   
   for metadynamics refer to:
   * S. Grimme, J. Chem. Theory Comput., 2019, 155, 2847-2862
     DOI: 10.1021/acs.jctc.9b00143
   
   for SPH calculations refer to:
   * S. Spicher and S. Grimme, J. Chem. Theory Comput., 2021, 17, 1701-1714
     DOI: 10.1021/acs.jctc.0c01306
   
   with help from (in alphabetical order)
   P. Atkinson, C. Bannwarth, F. Bohle, G. Brandenburg, E. Caldeweyher
   M. Checinski, S. Dohm, S. Ehlert, S. Ehrlich, I. Gerasimov, C. Hölzer
   A. Katbashev, J. Koopman, C. Lavigne, S. Lehtola, F. März, M. Müller,
   F. Musil, H. Neugebauer, J. Pisarek, C. Plett, P. Pracht, F. Pultar,
   J. Seibert, P. Shushkov, S. Spicher, M. Stahn, M. Steiner, T. Strunk,
   J. Stückrath, T. Rose, and J. Unsleber
   
 * started run on 2025/05/27 at 09:37:36.599     

           -------------------------------------------------
          |                Calculation Setup                |
           -------------------------------------------------

          program call               : xtb substructure_13.pdb --gfnff --input xtb_settings.inp --opt vtight --alpb water --verbose
          coordinate file            : substructure_13.pdb
          xtbhome directory          : /home/dargen3
          path for xtb               : /home/dargen3
          xcontrol input file        : xtb_settings.inp
          omp threads                :                     1

$$$$$$$$$$$$$$$$$$$$$$$$$$$$$$$$$$$$$$$$$$$$$$$$$$$$$$$$$$$$$$$$$$$$$$$$
 CONSTRAINTS & SCANS: DEBUG SECTION
$$$$$$$$$$$$$$$$$$$$$$$$$$$$$$$$$$$$$$$$$$$$$$$$$$$$$$$$$$$$$$$$$$$$$$$$
   ID    Z sym.   atoms
    1    6  C     1, 3, 4, 6, 12-14, 21-23, 31-33, 41-43, 45, 46, 57, 58, 64
    2    8  O     2, 15, 24, 34, 44, 59
    3    7  N     5, 7, 11, 20, 30, 40, 56, 63
    4    1  H     8-10, 16-19, 25-29, 35-39, 47-55, 60-62, 65-67
> constrain
-> atoms: 1, 2, 3, 4, 5, 6, 7, 8, 9, 10, 11, 12, 13, 14, 15, 16, 17, 18, 19, 20, 21, 22, 23, 24, 25, 26, 27, 28, 29, 31, 40, 41, 42, 43, 44, 45, 46, 47, 48, 49, 50, 51, 52, 53, 54, 55, 56, 57, 58, 59, 60, 61, 62, 63, 64, 65, 66, 67
--> 1: 1
--> 2: 2
--> 3: 3
--> 4: 4
--> 5: 5
--> 6: 6
--> 7: 7
--> 8: 8
--> 9: 9
--> 10: 10
--> 11: 11
--> 12: 12
--> 13: 13
--> 14: 14
--> 15: 15
--> 16: 16
--> 17: 17
--> 18: 18
--> 19: 19
--> 20: 20
--> 21: 21
--> 22: 22
--> 23: 23
--> 24: 24
--> 25: 25
--> 26: 26
--> 27: 27
--> 28: 28
--> 29: 29
--> 30: 31
--> 31: 40
--> 32: 41
--> 33: 42
--> 34: 43
--> 35: 44
--> 36: 45
--> 37: 46
--> 38: 47
--> 39: 48
--> 40: 49
--> 41: 50
--> 42: 51
--> 43: 52
--> 44: 53
--> 45: 54
--> 46: 55
--> 47: 56
--> 48: 57
--> 49: 58
--> 50: 59
--> 51: 60
--> 52: 61
--> 53: 62
--> 54: 63
--> 55: 64
--> 56: 65
--> 57: 66
--> 58: 67
-> force constant=1.0
$$$$$$$$$$$$$$$$$$$$$$$$$$$$$$$$$$$$$$$$$$$$$$$$$$$$$$$$$$$$$$$$$$$$$$$$

molecular fragmentation (1/2 indicates fragments):
1122222222111111111111111111111111111111111111111111111111111111111
# atoms in fragment 1/2:    59     8
 fragment masses (1/2) :      425.46       67.07
CMA distance (Bohr)    :  14.054
constraining FC (au)   :  1.0000
           -------------------------------------------------
          |                   Constraints                   |
           -------------------------------------------------

 * 58 constrained atom positions
   positions refering to input geometry

     #   Z                                   position/Å      displ./Å
     1   6 C    -15.9310015   -16.1710015    13.2320012     0.0000000
     2   8 O    -16.4990015   -15.8020015    12.2250011     0.0000000
     3   6 C    -15.2540014   -18.8970018    12.0240011     0.0000000
     4   6 C    -14.1380013   -18.1080017    11.8150011     0.0000000
     5   7 N    -15.0490014   -20.0340019    11.2930010     0.0000000
     6   6 C    -13.8250013   -19.8800018    10.6900010     0.0000000
     7   7 N    -13.2730012   -18.7290017    10.9980010     0.0000000
     8   1 H    -15.6860015   -20.8250019    11.2050010     0.0000000
     9   1 H    -13.9660013   -17.1260016    12.2290011     0.0000000
    10   1 H    -13.3620012   -20.6080019    10.0350009     0.0000000
    11   7 N    -14.9290014   -15.4470014    13.8490013     0.0000000
    12   6 C    -14.3680013   -14.2880013    13.1920012     0.0000000
    13   6 C    -13.4930013   -14.7400014    12.0550011     0.0000000
    14   6 C    -13.6080013   -13.3720012    14.1600013     0.0000000
    15   8 O    -12.3180011   -14.9750014    12.2440011     0.0000000
    16   1 H    -14.4020013   -15.8200015    14.6380014     0.0000000
    17   1 H    -15.2120014   -13.7210013    12.7710012     0.0000000
    18   1 H    -12.9790012   -13.9760013    14.8200014     0.0000000
    19   1 H    -12.9200012   -12.7430012    13.5880013     0.0000000
    20   7 N    -14.1220013   -14.9020014    10.8440010     0.0000000
    21   6 C    -13.3720012   -15.2880014     9.6620009     0.0000000
    22   6 C    -12.3760011   -14.2100013     9.3410009     0.0000000
    23   6 C    -14.2800013   -15.5580014     8.4720008     0.0000000
    24   8 O    -12.7670012   -13.1070012     9.0190008     0.0000000
    25   1 H    -15.1460014   -14.8920014    10.7750010     0.0000000
    26   1 H    -12.8240012   -16.2050015     9.9270009     0.0000000
    27   1 H    -13.7050013   -15.8770015     7.6020007     0.0000000
    28   1 H    -15.0170014   -16.3280015     8.7010008     0.0000000
    29   1 H    -14.8130014   -14.6480014     8.1990008     0.0000000
    31   6 C    -10.0120009   -13.5880013     9.1230008     0.0000000
    40   7 N    -10.2950010   -11.9040011     7.3390007     0.0000000
    41   6 C    -10.2890010   -11.4620011     5.9580006     0.0000000
    42   6 C     -8.9210008   -11.7270011     5.3540005     0.0000000
    43   6 C    -10.7720010   -10.0070009     5.7780005     0.0000000
    44   8 O     -7.9840007   -10.9960010     5.6030005     0.0000000
    45   6 C    -12.2240011    -9.8730009     6.2350006     0.0000000
    46   6 C     -9.8730009    -9.0020008     6.4940006     0.0000000
    47   1 H    -10.2590010   -11.1770010     8.0530007     0.0000000
    48   1 H    -11.0060010   -12.1180011     5.4360005     0.0000000
    49   1 H    -10.7260010    -9.7870009     4.6970004     0.0000000
    50   1 H    -12.3190011   -10.1160009     7.2930007     0.0000000
    51   1 H    -12.5960012    -8.8570008     6.0940006     0.0000000
    52   1 H    -12.8800012   -10.5500010     5.6870005     0.0000000
    53   1 H     -9.9130009    -9.1360008     7.5730007     0.0000000
    54   1 H     -8.8320008    -9.1140008     6.1880006     0.0000000
    55   1 H    -10.1760009    -7.9750007     6.2840006     0.0000000
    56   7 N     -8.7660008   -12.8540012     4.5500004     0.0000000
    57   6 C     -7.4510007   -13.4620012     4.4550004     0.0000000
    58   6 C     -6.7930006   -13.3680012     3.1410003     0.0000000
    59   8 O     -7.3260007   -13.8030013     2.1440002     0.0000000
    60   1 H     -9.5230009   -13.5410013     4.5240004     0.0000000
    61   1 H     -6.8220006   -12.9790012     5.2230005     0.0000000
    62   1 H     -7.5160007   -14.5200013     4.7550004     0.0000000
    63   7 N     -5.5300005   -12.8210012     3.1490003     0.0000000
    64   6 C     -4.7940004   -12.6990012     1.9410002     0.0000000
    65   1 H     -5.1640005   -12.2910011     3.9430004     0.0000000
    66   1 H     -3.8150004   -13.1410012     2.0640002     0.0000000
    67   1 H     -5.3280005   -13.2860012     1.1680001     0.0000000

     applying 1653 atom pairwise harmonic potentials
       applied force constant per pair:     0.0175439
     effective force constant per atom:     1.0000000
         constraining energy/grad norm:     0.0000000     0.0000000

     total constraint energy/grad norm:     0.0000000     0.0000000

          charge from pdb residues: 0

          entering GFN-FF setup routine... 67

          ==================== Thresholds ====================
          CN  :   150.00000
          rep :   500.00000
          disp:  2500.00000
          HB1 :   250.00000
          HB2 :   450.00000

          Pauling EN used:
          Z : 1  EN :  2.20
          Z : 6  EN :  2.55
          Z : 7  EN :  3.04
          Z : 8  EN :  3.44
          electric field strengths (au): 0.000

           ------------------------------------------------- 
          |           Force Field Initialization            |
           ------------------------------------------------- 

          distances ...
          ----------------------------------------
          generating topology and atomic info file ...
          pair mat ...
          computing topology distances matrix with Floyd-Warshall algo ...
          making topology EEQ charges ...
          #fragments for EEQ constrain from pdb file: 7
          ----------------------------------------
          generating topology and atomic info file ...
          pair mat ...
          computing topology distances matrix with Floyd-Warshall algo ...
          making topology EEQ charges ...
          #fragments for EEQ constrain from pdb file: 7
          rings ...
          # BATM   602
          # H in HB   24
          doing iterative Hueckel for 8 subsystem(s) ...
          iterative Hueckel run to get P ...
Hueckel system :  1 charge :   0 ndim/Nel :    3    3   eps(HOMO/LUMO)   -0.957489   -0.957489
Hueckel system :  2 charge :   0 ndim/Nel :    5    5   eps(HOMO/LUMO)   -0.636356    3.209855
Hueckel system :  3 charge :   0 ndim/Nel :    3    4   eps(HOMO/LUMO)   -0.902181   -0.902181
Hueckel system :  5 charge :   0 ndim/Nel :    3    4   eps(HOMO/LUMO)   -0.899773   -0.899773
Hueckel system :  6 charge :   0 ndim/Nel :    3    4   eps(HOMO/LUMO)   -0.891565   -0.891565
Hueckel system :  7 charge :   0 ndim/Nel :    3    4   eps(HOMO/LUMO)   -0.916334   -0.916334
Hueckel system :  8 charge :   0 ndim/Nel :    4    5   eps(HOMO/LUMO)    1.305150    1.305150
WARNING: probably wrong pi occupation for system 8. Second attempt with Nel=Nel-1!
 at,nb,topo%hyb,Npiel:          58  C             3           2           1
 at,nb,topo%hyb,Npiel:          59  O             1           2           1
 at,nb,topo%hyb,Npiel:          63  N             3           3           2
 at,nb,topo%hyb,Npiel:          64  C             3           2           1

          eigenvalues
 #    :           1          2          3          4
 occ. :        2.000      1.987      0.013      0.000
 eps  :        -4.347     -2.183      1.305      3.392
Hueckel system :  8 charge :   0 ndim/Nel :    4    4   eps(HOMO/LUMO)   -2.182674    1.305150

  atom   neighbors  erfCN metchar sp-hybrid imet pi  qest     coordinates
    1   C      2    1.93   0.00        -2    0    1  -0.003  -30.105227  -30.558761   25.004856
    2   O      1    0.98   0.00         2    0    1  -0.236  -31.178591  -29.861452   23.101902
    3   C      2    2.12   0.00        -2    0    1  -0.170  -28.825882  -35.710155   22.722067
    4   C      3    3.06   0.00         2    0    1   0.113  -26.716948  -34.219161   22.327114
    5   N      3    2.88   0.00         3    0    1  -0.024  -28.438488  -37.858773   21.340677
    6   C      3    3.11   0.00         2    0    1   0.070  -26.125464  -37.567755   20.201172
    7   N      2    2.01   0.00         2    0    1  -0.131  -25.082335  -35.392681   20.783208
    8   H      1    0.98   0.00         0    0    0   0.149  -29.642244  -39.353547   21.174381
    9   H      1    0.97   0.00         0    0    0   0.117  -26.391915  -32.363450   23.109461
   10   H      1    0.97   0.00         0    0    0   0.116  -25.250520  -38.943476   18.963402
   11   N      3    2.79   0.00        -3    0    1  -0.110  -28.211721  -29.190599   26.170817
   12   C      4    3.49   0.00         3    0    0   0.030  -27.151585  -27.000407   24.929267
   13   C      3    2.80   0.00         2    0    1   0.164  -25.498075  -27.854563   22.780648
   14   C      3    2.78   0.00         3    0    0  -0.044  -25.715393  -25.269418   26.758522
   15   O      1    0.98   0.00         2    0    1  -0.378  -23.277646  -28.298649   23.137807
   16   H      1    0.98   0.00         0    0    0   0.124  -27.215836  -29.895467   27.661811
   17   H      1    0.97   0.01         0    0    0   0.069  -28.746514  -25.928932   24.133692
   18   H      1    0.97   0.00         0    0    0   0.073  -24.526755  -26.410812   28.005741
   19   H      1    0.97   0.00         0    0    0   0.073  -24.415262  -24.080780   25.677599
   20   N      3    2.80   0.00        -3    0    1  -0.178  -26.686712  -28.160699   20.492190
   21   C      4    3.49   0.00         3    0    0   0.036  -25.269418  -28.890133   18.258534
   22   C      3    2.80   0.00         2    0    1   0.166  -23.387251  -26.853008   17.651932
   23   C      4    3.49   0.00         3    0    0  -0.060  -26.985289  -29.400359   16.009760
   24   O      1    0.98   0.00         2    0    1  -0.376  -24.126133  -24.768640   17.043440
   25   H      1    0.98   0.00         0    0    0   0.137  -28.621792  -28.141801   20.361799
   26   H      1    0.97   0.01         0    0    0   0.067  -24.233848  -30.623012   18.759311
   27   H      1    0.97   0.00         0    0    0   0.069  -25.898697  -30.003182   14.365698
   28   H      1    0.97   0.00         0    0    0   0.069  -28.378017  -30.855448   16.442507
   29   H      1    0.97   0.00         0    0    0   0.069  -27.992513  -27.680708   15.493864
   30   N      3    2.80   0.00        -3    0    1  -0.184  -20.873915  -27.495515   17.839015
   31   C      4    3.49   0.00         3    0    0   0.034  -18.919938  -25.677599   17.239971
   32   C      3    2.80   0.00         2    0    1   0.172  -19.090013  -24.997297   14.465853
   33   C      4    3.49   0.00         3    0    0  -0.060  -16.298888  -26.639469   17.895706
   34   O      1    0.98   0.00         2    0    1  -0.377  -18.899151  -26.650808   12.889822
   35   H      1    0.98   0.00         0    0    0   0.137  -20.301328  -29.277527   18.307667
   36   H      1    0.97   0.01         0    0    0   0.068  -19.348906  -23.976845   18.356800
   37   H      1    0.97   0.00         0    0    0   0.070  -15.858582  -28.304318   16.765650
   38   H      1    0.97   0.00         0    0    0   0.070  -14.857027  -25.220285   17.506423
   39   H      1    0.97   0.00         0    0    0   0.070  -16.174166  -27.166703   19.883698
   40   N      3    2.79   0.00        -3    0    1  -0.200  -19.454730  -22.495300   13.868700
   41   C      4    3.49   0.00         3    0    0   0.028  -19.443392  -21.660041   11.258988
   42   C      3    2.80   0.00         2    0    1   0.145  -16.858247  -22.160818   10.117594
   43   C      4    3.48   0.00         3    0    0  -0.010  -20.356130  -18.910489   10.918838
   44   O      1    0.98   0.00         2    0    1  -0.391  -15.087573  -20.779428   10.588135
   45   C      4    3.49   0.00         3    0    0  -0.059  -23.100012  -18.657266   11.782442
   46   C      4    3.49   0.00         3    0    0  -0.059  -18.657266  -17.011315   12.271881
   47   H      1    0.98   0.00         0    0    0   0.128  -19.386700  -21.121469   15.217964
   48   H      1    0.97   0.01         0    0    0   0.059  -20.798326  -22.899701   10.272551
   49   H      1    0.97   0.01         0    0    0   0.050  -20.269202  -18.494750    8.876044
   50   H      1    0.97   0.00         0    0    0   0.052  -23.279536  -19.116469   13.781773
   51   H      1    0.97   0.00         0    0    0   0.052  -23.802990  -16.737304   11.515991
   52   H      1    0.97   0.00         0    0    0   0.052  -24.339672  -19.936611   10.746872
   53   H      1    0.97   0.00         0    0    0   0.052  -18.732855  -17.264538   14.310896
   54   H      1    0.97   0.00         0    0    0   0.052  -16.690061  -17.222964   11.693625
   55   H      1    0.97   0.00         0    0    0   0.052  -19.229853  -15.070566   11.875039
   56   N      3    2.79   0.00        -3    0    1  -0.144  -16.565339  -24.290540    8.598254
   57   C      4    3.50   0.00         3    0    0   0.004  -14.080349  -25.439493    8.418730
   58   C      3    2.80   0.00         2    0    1   0.192  -12.836910  -25.261859    5.935630
   59   O      1    0.98   0.00         2    0    1  -0.364  -13.844134  -26.083890    4.051573
   60   H      1    0.98   0.00         0    0    0   0.140  -17.995862  -25.588781    8.549121
   61   H      1    0.97   0.01         0    0    0   0.086  -12.891712  -24.526755    9.870040
   62   H      1    0.97   0.01         0    0    0   0.086  -14.203182  -27.438823    8.985648
   63   N      3    2.79   0.00         3    0    1  -0.222  -10.450185  -24.228179    5.950748
   64   C      3    2.79   0.00         2    0    1  -0.007   -9.059347  -23.997632    3.667958
   65   H      1    0.98   0.00         0    0    0   0.123   -9.758546  -23.226624    7.451190
   66   H      1    0.97   0.00         0    0    0   0.053   -7.209305  -24.832891    3.900395
   67   H      1    0.97   0.01         0    0    0   0.053  -10.068461  -25.106901    2.207200

molecular fragment  # atoms  topo charge
       1            10            -0.000
       2             9             0.000
       3            10             0.000
       4            10            -0.000
       5            16            -0.000
       6             7             0.000
       7             5            -0.000


          #atoms :   67
          #bonds :   66

 bond atoms        type  in ring    R      R0    piBO    fqq  kbond(tot)  alp
 O  C     2    1      2    0     1.214   0.997   0.793   1.015  -0.243   0.584
 C  C     4    3      2    5     1.383   1.212   0.695   1.047  -0.271   0.491
 N  C     5    3      2    5     1.367   1.251   0.386   1.001  -0.206   0.524
 C  N     6    5      2    5     1.373   1.252   0.686   1.040  -0.274   0.524
 N  C     7    4      2    5     1.342   1.226   0.563   1.047  -0.241   0.519
 N  C     7    6      2    5     1.313   1.239   0.504   1.047  -0.230   0.519
 H  N     8    5      1    0     1.019   0.894 -99.000   1.046  -0.176   0.551
 H  C     9    4      1    0     1.079   0.965 -99.000   1.000  -0.174   0.490
 H  C    10    6      1    0     1.083   0.967 -99.000   1.000  -0.174   0.490
 N  C    11    1      2    0     1.382   1.214   0.508   1.020  -0.229   0.524
 C  N    12   11      1    0     1.446   1.326 -99.000   1.046  -0.153   0.496
 C  C    13   12      1    0     1.504   1.333 -99.000   1.000  -0.160   0.475
 C  C    14   12      1    0     1.534   1.331 -99.000   1.038  -0.154   0.468
 O  C    15   13      2    0     1.213   1.031   0.857   1.047  -0.262   0.584
 H  N    16   11      1    0     1.019   0.890 -99.000   1.047  -0.176   0.551
 H  C    17   12      1    0     1.100   0.976 -99.000   1.005  -0.162   0.482
 H  C    18   14      1    0     1.094   0.938 -99.000   1.045  -0.168   0.482
 H  C    19   14      1    0     1.094   0.938 -99.000   1.045  -0.168   0.482
 N  C    20   13      2    0     1.374   1.264   0.502   1.047  -0.234   0.524
 C  N    21   20      1    0     1.452   1.326 -99.000   1.047  -0.153   0.496
 C  C    22   21      1    0     1.502   1.333 -99.000   1.000  -0.160   0.475
 C  C    23   21      1    0     1.521   1.371 -99.000   1.043  -0.155   0.468
 O  C    24   22      2    0     1.214   1.031   0.857   1.047  -0.262   0.584
 H  N    25   20      1    0     1.026   0.890 -99.000   1.047  -0.176   0.551
 H  C    26   21      1    0     1.101   0.976 -99.000   1.003  -0.162   0.482
 H  C    27   23      1    0     1.091   0.976 -99.000   1.046  -0.169   0.482
 H  C    28   23      1    0     1.090   0.976 -99.000   1.046  -0.169   0.482
 H  C    29   23      1    0     1.089   0.976 -99.000   1.046  -0.169   0.482
 N  C    30   22      2    0     1.376   1.264   0.503   1.047  -0.234   0.524
 C  N    31   30      1    0     1.447   1.326 -99.000   1.047  -0.153   0.496
 C  C    32   31      1    0     1.514   1.332 -99.000   1.000  -0.160   0.475
 C  C    33   31      1    0     1.518   1.371 -99.000   1.042  -0.155   0.468
 O  C    34   32      2    0     1.213   1.031   0.856   1.047  -0.261   0.584
 H  N    35   30      1    0     1.021   0.890 -99.000   1.047  -0.176   0.551
 H  C    36   31      1    0     1.100   0.976 -99.000   1.004  -0.162   0.482
 H  C    37   33      1    0     1.090   0.976 -99.000   1.046  -0.169   0.482
 H  C    38   33      1    0     1.090   0.976 -99.000   1.046  -0.169   0.482
 H  C    39   33      1    0     1.090   0.976 -99.000   1.046  -0.169   0.482
 N  C    40   32      2    0     1.375   1.263   0.504   1.047  -0.235   0.524
 C  N    41   40      1    0     1.450   1.326 -99.000   1.047  -0.153   0.496
 C  C    42   41      1    0     1.519   1.332 -99.000   1.001  -0.160   0.475
 C  C    43   41      1    0     1.544   1.370 -99.000   1.027  -0.152   0.468
 O  C    44   42      2    0     1.214   1.030   0.860   1.047  -0.262   0.584
 C  C    45   43      1    0     1.528   1.370 -99.000   1.016  -0.151   0.468
 C  C    46   43      1    0     1.527   1.370 -99.000   1.016  -0.151   0.468
 H  N    47   40      1    0     1.020   0.890 -99.000   1.047  -0.176   0.551
 H  C    48   41      1    0     1.103   0.976 -99.000   1.007  -0.162   0.482
 H  C    49   43      1    0     1.104   0.976 -99.000   1.030  -0.166   0.482
 H  C    50   45      1    0     1.090   0.976 -99.000   1.045  -0.168   0.482
 H  C    51   45      1    0     1.091   0.976 -99.000   1.045  -0.168   0.482
 H  C    52   45      1    0     1.090   0.976 -99.000   1.045  -0.168   0.482
 H  C    53   46      1    0     1.088   0.976 -99.000   1.045  -0.168   0.482
 H  C    54   46      1    0     1.091   0.976 -99.000   1.045  -0.168   0.482
 H  C    55   46      1    0     1.091   0.976 -99.000   1.045  -0.168   0.482
 N  C    56   42      2    0     1.393   1.264   0.497   1.047  -0.233   0.524
 C  N    57   56      1    0     1.452   1.326 -99.000   1.030  -0.151   0.496
 C  C    58   57      1    0     1.473   1.333 -99.000   1.015  -0.162   0.475
 O  C    59   58      2    0     1.211   1.018   0.930   1.047  -0.274   0.584
 H  N    60   56      1    0     1.023   0.890 -99.000   1.047  -0.176   0.551
 H  C    61   57      1    0     1.104   0.977 -99.000   1.019  -0.164   0.482
 H  C    62   57      1    0     1.102   0.977 -99.000   1.019  -0.164   0.482
 N  C    63   58      2    0     1.376   1.292   0.346   1.047  -0.203   0.524
 C  N    64   63      2    0     1.420   1.190   0.906   1.008  -0.302   0.524
 H  N    65   63      1    0     1.022   0.890 -99.000   1.047  -0.176   0.551
 H  C    66   64      1    0     1.081   0.950 -99.000   1.028  -0.179   0.490
 H  C    67   64      1    0     1.108   0.950 -99.000   1.028  -0.179   0.490
          #angl  :   111

 angle atoms        phi0    phi      FC  pi rings
    1   11    2   145.000 123.412   0.083 F   0
    3    5    4   145.000 105.827   0.109 F   5
    4    7    3   109.000 110.376   0.261 F   5
    4    9    3   120.000 126.139   0.201 F   0
    4    9    7   120.000 123.482   0.203 F   0
    5    6    3   113.000 105.973   0.088 F   5
    5    8    3   113.000 126.710   0.212 F   0
    5    8    6   113.000 127.309   0.150 F   0
    6    7    5   109.000 111.716   0.267 F   5
    6   10    5   120.000 124.832   0.204 F   0
    6   10    7   120.000 123.451   0.203 F   0
    7    6    4   105.000 106.106   0.284 F   5
   11   12    1   115.000 119.909   0.415 F   0
   11   16    1   115.000 121.923   0.341 F   0
   11   16   12   104.000 116.389   0.183 F   0
   12   13   11   109.500 109.170   0.307 F   0
   12   14   11   109.500 112.593   0.306 F   0
   12   14   13   109.500 111.603   0.305 F   0
   12   17   11   109.500 106.818   0.253 F   0
   12   17   13   109.500 108.166   0.252 F   0
   12   17   14   109.500 108.281   0.251 F   0
   13   15   12   120.000 120.257   0.179 F   0
   13   20   12   120.000 115.803   0.243 F   0
   13   20   15   120.000 123.905   0.176 F   0
   14   18   12   109.500 109.630   0.217 F   0
   14   19   12   109.500 108.966   0.217 F   0
   14   19   18   108.600 105.751   0.180 F   0
   20   21   13   115.000 120.814   0.408 F   0
   20   25   13   115.000 120.981   0.334 F   0
   20   25   21   104.000 117.592   0.181 F   0
   21   22   20   109.500 109.001   0.307 F   0
   21   23   20   109.500 112.068   0.305 F   0
   21   23   22   109.500 110.853   0.305 F   0
   21   26   20   109.500 106.418   0.253 F   0
   21   26   22   109.500 108.613   0.252 F   0
   21   26   23   109.500 109.737   0.251 F   0
   22   24   21   120.000 119.682   0.179 F   0
   22   30   21   120.000 116.616   0.243 F   0
   22   30   24   120.000 123.702   0.176 F   0
   23   27   21   109.500 111.181   0.250 F   0
   23   28   21   109.500 111.383   0.250 F   0
   23   28   27   108.600 108.507   0.208 F   0
   23   29   21   109.500 109.869   0.250 F   0
   23   29   27   108.600 107.602   0.208 F   0
   23   29   28   108.600 108.173   0.208 F   0
   30   31   22   115.000 120.689   0.408 F   0
   30   35   22   115.000 122.166   0.333 F   0
   30   35   31   104.000 117.066   0.181 F   0
   31   32   30   109.500 109.140   0.307 F   0
   31   33   30   109.500 112.327   0.305 F   0
   31   33   32   109.500 110.838   0.305 F   0
   31   36   30   109.500 106.177   0.253 F   0
   31   36   32   109.500 108.300   0.252 F   0
   31   36   33   109.500 109.880   0.251 F   0
   32   34   31   120.000 119.349   0.178 F   0
   32   40   31   120.000 117.397   0.242 F   0
   32   40   34   120.000 123.254   0.176 F   0
   33   37   31   109.500 109.938   0.250 F   0
   33   38   31   109.500 111.430   0.250 F   0
   33   38   37   108.600 107.668   0.208 F   0
   33   39   31   109.500 111.207   0.250 F   0
   33   39   37   108.600 108.033   0.208 F   0
   33   39   38   108.600 108.433   0.208 F   0
   40   41   32   115.000 120.790   0.407 F   0
   40   47   32   115.000 121.383   0.332 F   0
   40   47   41   104.000 116.708   0.181 F   0
   41   42   40   109.500 109.227   0.306 F   0
   41   43   40   109.500 113.396   0.306 F   0
   41   43   42   109.500 113.575   0.305 F   0
   41   48   40   109.500 105.469   0.253 F   0
   41   48   42   109.500 107.068   0.252 F   0
   41   48   43   109.500 107.576   0.251 F   0
   42   44   41   120.000 120.564   0.179 F   0
   42   56   41   120.000 118.095   0.244 F   0
   42   56   44   120.000 121.302   0.178 F   0
   43   45   41   109.500 110.188   0.304 F   0
   43   46   41   109.500 112.430   0.304 F   0
   43   46   45   109.500 111.195   0.304 F   0
   43   49   41   109.500 106.795   0.251 F   0
   43   49   45   109.500 108.356   0.251 F   0
   43   49   46   109.500 107.666   0.251 F   0
   45   50   43   109.500 110.711   0.251 F   0
   45   51   43   109.500 111.529   0.251 F   0
   45   51   50   108.600 107.661   0.208 F   0
   45   52   43   109.500 111.525   0.251 F   0
   45   52   50   108.600 107.280   0.208 F   0
   45   52   51   108.600 107.943   0.208 F   0
   46   53   43   109.500 111.246   0.251 F   0
   46   54   43   109.500 111.273   0.251 F   0
   46   54   53   108.600 107.496   0.208 F   0
   46   55   43   109.500 111.456   0.251 F   0
   46   55   53   108.600 107.252   0.208 F   0
   46   55   54   108.600 107.918   0.208 F   0
   56   57   42   115.000 118.512   0.411 F   0
   56   60   42   115.000 118.413   0.336 F   0
   56   60   57   104.000 112.798   0.182 F   0
   57   58   56   109.500 115.873   0.307 F   0
   57   61   56   109.500 106.697   0.253 F   0
   57   61   58   109.500 109.770   0.251 F   0
   57   62   56   109.500 109.325   0.253 F   0
   57   62   58   109.500 109.310   0.251 F   0
   57   62   61   108.600 105.329   0.209 F   0
   58   59   57   120.000 120.991   0.177 F   0
   58   63   57   120.000 115.481   0.241 F   0
   58   63   59   120.000 123.454   0.174 F   0
   63   64   58   113.000 120.323   0.042 F   0
   63   65   58   113.000 122.617   0.212 F   0
   63   65   64   113.000 115.508   0.105 F   0
   64   66   63   120.000 109.723   0.204 F   0
   64   67   63   120.000 107.354   0.204 F   0
   64   67   66   120.000 107.412   0.167 F   0
 torsion atoms        nrot   rings    phi0    phi      FC
    4    3    7    5   2      5       0.000   0.391   0.693
    4    3    9    5   2      5       0.000 179.036   1.145
    5    3    6    4   2      5       0.000   0.361   0.329
    5    3    8    4   2      5       0.000 178.718   0.469
    6    5    7    3   2      5       0.000   0.224   0.662
    6    5    7    8   2      5       0.000 178.847   0.891
    6    5   10    3   2      5       0.000 179.954   1.094
    6    5   10    8   2      5       0.000   0.883   1.473
    7    4    6    3   2      5       0.000   0.255   0.696
    7    4    6    9   2      5       0.000 179.190   0.937
    7    6    4    5   2      5       0.000   0.017   0.446
    7    6    4   10   2      5       0.000 179.717   0.780
   11    1   12    2   2      0     180.000   9.404   0.626
   11    1   16    2   2      0     180.000 173.664   0.929
   12   11   13    1   3      0     180.000  73.183   0.024
   12   11   13   16   3      0     180.000  91.923   0.032
   12   11   14    1   3      0     180.000 162.287   0.024
   12   11   14   16   3      0     180.000  32.607   0.032
   12   11   17    1   3      0     180.000  43.555   0.034
   12   11   17   16   3      0     180.000 151.339   0.045
   13   12   15   11   3      0     180.000  88.898   0.067
   13   12   15   14   3      0     180.000  36.210   0.082
   13   12   15   17   3      0     180.000 155.224   0.117
   13   12   20   11   3      0     180.000  89.019   0.042
   13   12   20   14   3      0     180.000 145.872   0.051
   13   12   20   17   3      0     180.000  26.859   0.073
   14   12   18   11   3      0     180.000  44.245   0.117
   14   12   18   13   3      0     180.000  78.937   0.143
   14   12   18   17   3      0     180.000 162.118   0.204
   14   12   19   11   3      0     180.000 159.543   0.117
   14   12   19   13   3      0     180.000  36.360   0.143
   14   12   19   17   3      0     180.000  82.585   0.204
   20   13   21   12   2      0     180.000 177.755   0.611
   20   13   21   15   2      0     180.000   4.413   0.828
   20   13   25   12   2      0     180.000  11.438   0.907
   20   13   25   15   2      0     180.000 166.394   1.229
   21   20   22   13   3      0     180.000  63.168   0.023
   21   20   22   25   3      0     180.000 125.722   0.033
   21   20   23   13   3      0     180.000 173.749   0.022
   21   20   23   25   3      0     180.000   2.640   0.032
   21   20   26   13   3      0     180.000  53.793   0.033
   21   20   26   25   3      0     180.000 117.317   0.047
   22   21   24   20   3      0     180.000  64.532   0.068
   22   21   24   23   3      0     180.000  59.274   0.080
   22   21   24   26   3      0     180.000 179.911   0.118
   22   21   30   20   3      0     180.000 115.232   0.042
   22   21   30   23   3      0     180.000 120.962   0.050
   22   21   30   26   3      0     180.000   0.324   0.074
   23   21   27   20   3      0     180.000 178.200   0.120
   23   21   27   22   3      0     180.000  59.768   0.148
   23   21   27   26   3      0     180.000  60.201   0.210
   23   21   28   20   3      0     180.000  57.049   0.120
   23   21   28   22   3      0     180.000 179.080   0.148
   23   21   28   26   3      0     180.000  60.951   0.210
   23   21   29   20   3      0     180.000  62.795   0.120
   23   21   29   22   3      0     180.000  59.236   0.148
   23   21   29   26   3      0     180.000 179.205   0.210
   30   22   31   21   2      0     180.000 178.661   0.620
   30   22   31   24   2      0     180.000   1.585   0.840
   30   22   35   21   2      0     180.000   1.983   0.919
   30   22   35   24   2      0     180.000 178.263   1.246
   31   30   32   22   3      0     180.000  64.226   0.023
   31   30   32   35   3      0     180.000 112.616   0.033
   31   30   33   22   3      0     180.000 172.434   0.022
   31   30   33   35   3      0     180.000  10.724   0.031
   31   30   36   22   3      0     180.000  52.309   0.033
   31   30   36   35   3      0     180.000 130.849   0.047
   32   31   34   30   3      0     180.000  58.515   0.068
   32   31   34   33   3      0     180.000  65.704   0.080
   32   31   34   36   3      0     180.000 173.691   0.118
   32   31   40   30   3      0     180.000 121.579   0.042
   32   31   40   33   3      0     180.000 114.201   0.050
   32   31   40   36   3      0     180.000   6.403   0.074
   33   31   37   30   3      0     180.000  63.067   0.120
   33   31   37   32   3      0     180.000  59.316   0.147
   33   31   37   36   3      0     180.000 178.979   0.210
   33   31   38   30   3      0     180.000 177.644   0.120
   33   31   38   32   3      0     180.000  59.973   0.147
   33   31   38   36   3      0     180.000  59.690   0.210
   33   31   39   30   3      0     180.000  56.535   0.120
   33   31   39   32   3      0     180.000 178.919   0.147
   33   31   39   36   3      0     180.000  61.419   0.210
   40   32   41   31   2      0     180.000 175.210   0.645
   40   32   41   34   2      0     180.000   4.691   0.874
   40   32   47   31   2      0     180.000   7.705   0.956
   40   32   47   34   2      0     180.000 172.196   1.296
   41   40   42   32   3      0     180.000  62.729   0.023
   41   40   42   47   3      0     180.000 105.337   0.033
   41   40   43   32   3      0     180.000 169.505   0.022
   41   40   43   47   3      0     180.000  22.428   0.031
   41   40   48   32   3      0     180.000  52.045   0.033
   41   40   48   47   3      0     180.000 139.888   0.046
   42   41   44   40   3      0     180.000  77.494   0.066
   42   41   44   43   3      0     180.000  50.171   0.078
   42   41   44   48   3      0     180.000 168.768   0.116
   42   41   56   40   3      0     180.000 100.266   0.041
   42   41   56   43   3      0     180.000 132.069   0.049
   42   41   56   48   3      0     180.000  13.473   0.072
   43   41   45   40   3      0     180.000  62.401   0.075
   43   41   45   40   1      0     180.000  62.401  -0.068
   43   41   45   42   3      0     180.000 172.128   0.093
   43   41   45   48   3      0     180.000  53.824   0.132
   43   41   46   40   3      0     180.000  62.245   0.075
   43   41   46   40   1      0     180.000  62.245  -0.068
   43   41   46   42   3      0     180.000  63.227   0.093
   43   41   46   48   3      0     180.000 178.470   0.132
   43   41   49   40   3      0     180.000 179.882   0.112
   43   41   49   42   3      0     180.000  54.646   0.137
   43   41   49   48   3      0     180.000  63.658   0.196
   45   43   50   41   3      0     180.000  61.554   0.139
   45   43   50   46   3      0     180.000  63.798   0.139
   45   43   50   49   3      0     180.000 178.064   0.206
   45   43   51   41   3      0     180.000 178.590   0.139
   45   43   51   46   3      0     180.000  56.058   0.139
   45   43   51   49   3      0     180.000  62.079   0.206
   45   43   52   41   3      0     180.000  57.820   0.139
   45   43   52   46   3      0     180.000 176.828   0.139
   45   43   52   49   3      0     180.000  58.691   0.206
   46   43   53   41   3      0     180.000  65.411   0.139
   46   43   53   45   3      0     180.000  58.679   0.139
   46   43   53   49   3      0     180.000 177.233   0.206
   46   43   54   41   3      0     180.000  54.425   0.139
   46   43   54   45   3      0     180.000 178.515   0.139
   46   43   54   49   3      0     180.000  62.932   0.206
   46   43   55   41   3      0     180.000 174.940   0.139
   46   43   55   45   3      0     180.000  60.970   0.139
   46   43   55   49   3      0     180.000  57.583   0.206
   56   42   57   41   2      0     180.000 152.913   0.560
   56   42   57   44   2      0     180.000  24.829   0.759
   56   42   60   41   2      0     180.000  10.235   0.831
   56   42   60   44   2      0     180.000 167.507   1.126
   57   56   58   42   3      0     180.000 112.675   0.022
   57   56   58   60   3      0     180.000 102.667   0.032
   57   56   61   42   3      0     180.000   9.870   0.032
   57   56   61   60   3      0     180.000 134.788   0.045
   57   56   62   42   3      0     180.000 123.302   0.032
   57   56   62   60   3      0     180.000  21.356   0.045
   58   57   59   56   3      0     180.000  57.098   0.066
   58   57   59   61   3      0     180.000 178.005   0.115
   58   57   59   62   3      0     180.000  66.933   0.115
   58   57   63   56   3      0     180.000 125.926   0.041
   58   57   63   61   3      0     180.000   5.019   0.072
   58   57   63   62   3      0     180.000 110.043   0.072
   63   58   64   57   2      0     180.000 179.104   0.338
   63   58   64   59   2      0     180.000   2.211   0.458
   63   58   65   57   2      0     180.000  15.744   0.481
   63   58   65   59   2      0     180.000 167.364   0.652
   64   63   66   58   2      0     180.000 127.862   1.381
   64   63   66   65   2      0     180.000  65.974   1.969
   64   63   67   58   2      0     180.000  11.434   1.381
   64   63   67   65   2      0     180.000 177.598   1.969
 out-of-plane atoms          phi0    phi      FC
    4    9    7    3          0.000  -0.520   0.611
    5    8    3    6          0.000  -0.886   0.429
    6   10    7    5          0.000   0.247   0.573
   11   16    1   12          0.000 -13.600   0.353
   13   15   20   12          0.000   1.951  23.245
   20   25   13   21          0.000   7.887   0.087
   22   24   30   21          0.000   0.220  23.360
   30   35   22   31          0.000  -2.857   0.064
   32   34   40   31          0.000  -0.088  23.771
   40   47   32   41          0.000 -10.712  -0.002
   42   44   56   41          0.000   1.992  22.127
   56   60   42   57          0.000  32.192   0.220
   58   59   63   57          0.000  -2.805  28.282
   63   65   58   64          0.000  12.779  -0.043
   64   66   67   63          0.000  57.482   0.554
          #tors  :   166
          #nmol  :   7
          #optfrag :   7

 GFN-FF setup done.

           ------------------------------------------------- 
          |                   G F N - F F                   |
          |          A general generic force-field          |
          |                  Version 1.0.3                  | 
           ------------------------------------------------- 
      * Solvation model:               ALPB
        Solvent                        water
        Parameter file                 internal GFN-FF/ALPB
        Dielectric constant                8.0200E+01
        Reference state                gsolv [1 M gas/solution]
        Free energy shift                  3.6494E-04 Eh       2.2900E-01 kcal/mol
        Temperature                        2.9815E+02 K
        Density                            1.0000E+00 kg/L
        Solvent mass                       1.8000E+01 g/mol
        Interaction kernel             P16
        Born radius scaling (c1)           1.5056E+00
        Born radii integrator          GBOBC
        Born offset                        0.0000E+00 a0       0.0000E+00 AA
        H-bond correction              true
        Ion screening                  false
        Surface tension                    1.0000E-05 Eh       1.5569E+01 dyn/cm
        Grid points                               230 per atom
          Number of HB bonds (bound hydrogen)     1349
          Number of HB bonds (unbound hydrogen)   119
          Number of XB bonds                      0

 E+G (total)                   0 d,  0 h,  0 min,  0.002 sec
 distance/D3 list               ...        0 min,  0.000 sec (  1.027%)
 non bonded repulsion           ...        0 min,  0.000 sec (  2.220%)
 dCN                            ...        0 min,  0.000 sec (  6.176%)
 EEQ energy and q               ...        0 min,  0.000 sec (  5.580%)
 D3                             ...        0 min,  0.000 sec (  9.007%)
 EEQ gradient                   ...        0 min,  0.000 sec (  4.622%)
 bonds                          ...        0 min,  0.000 sec (  0.719%)
 bend and torsion               ...        0 min,  0.000 sec (  2.683%)
 bonded ATM                     ...        0 min,  0.000 sec (  1.168%)
 HB/XB (incl list setup)        ...        0 min,  0.000 sec ( 10.311%)
 GBSA                           ...        0 min,  0.001 sec ( 59.608%)

         :::::::::::::::::::::::::::::::::::::::::::::::::::::
         ::                     SUMMARY                     ::
         :::::::::::::::::::::::::::::::::::::::::::::::::::::
         :: total energy             -11.718565849359 Eh    ::
         :: total w/o Gsolv          -11.659269352307 Eh    ::
         :: total w/o Gsasa/hb       -11.706387610028 Eh    ::
         :: gradient norm              0.176112311547 Eh/a0 ::
         ::.................................................::
         :: bond energy              -11.927407910013 Eh    ::
         :: angle energy               0.054359211685 Eh    ::
         :: torsion energy             0.020096051130 Eh    ::
         :: repulsion energy           0.751116925191 Eh    ::
         :: electrostat energy        -0.476782292547 Eh    ::
         :: dispersion energy         -0.056922014558 Eh    ::
         :: HB energy                 -0.003726005102 Eh    ::
         :: XB energy                  0.000000000000 Eh    ::
         :: bonded atm energy         -0.020003318093 Eh    ::
         :: external energy            0.000000000000 Eh    ::
         :: -> Gsolv                  -0.059296497052 Eh    ::
         ::    -> Gborn               -0.047118257721 Eh    ::
         ::    -> Gsasa                0.003928319966 Eh    ::
         ::    -> Ghb                 -0.016471498552 Eh    ::
         ::    -> Gshift               0.000364939255 Eh    ::
         :: add. restraining           0.000000000000 Eh    ::
         :: total charge              -0.000000000000 e     ::
         ::.................................................::
         :: atomisation energy         0.000000000000 Eh    ::
         :::::::::::::::::::::::::::::::::::::::::::::::::::::

      ----------------------------------------------------------- 
     |                   =====================                   |
     |                        A N C O P T                        |
     |                   =====================                   |
     |               Approximate Normal Coordinate               |
     |                Rational Function Optimizer                |
      ----------------------------------------------------------- 

          ...................................................
          :                      SETUP                      :
          :.................................................:
          :   optimization level         verytight          :
          :   max. optcycles                    10          :
          :   ANC micro-cycles                  10          :
          :   degrees of freedom               195          :
          :.................................................:
          :   RF solver                   davidson          :
          :   write xtbopt.log                true          :
          :   linear?                        false          :
          :   energy convergence         0.1000000E-06 Eh   :
          :   grad. convergence          0.2000000E-03 Eh/α :
          :   maxmium RF displ.          1.0000000          :
          :   Hlow (freq-cutoff)         0.1000000E-01      :
          :   Hmax (freq-cutoff)         5.0000000          :
          :   S6 in model hess.         20.0000000          :
          ...................................................

generating ANC from model Hessian ...
Using GFN-FF Lindh-Hessian
 Shifting diagonal of input Hessian by    4.4871866162832941E-003
 Lowest  eigenvalues of input Hessian
    0.000000    0.000000    0.000000    0.000000    0.000000    0.000000
    0.010000    0.013011    0.018836    0.039130    0.045803    0.055342
    0.063566    0.086729    0.102218    0.106680    0.117988    0.119157
 Highest eigenvalues
    3.650520    3.744938    3.791221    3.850490    4.052129    4.347306


........................................................................
.............................. CYCLE    1 ..............................
........................................................................
     iter. time                 ...        0 min,  0.002 sec
 * total energy  :   -11.7185658 Eh     change        0.0000000E+00 Eh
   gradient norm :     0.1761123 Eh/α   predicted     0.0000000E+00 (    NaN%)
   displ. norm   :     0.1138825 α      lambda       -0.1378722E-01
   maximum displ.:     0.0417571 α      in ANC's #95, #28, #9, ...

........................................................................
.............................. CYCLE    2 ..............................
........................................................................
     iter. time                 ...        0 min,  0.001 sec
 * total energy  :   -11.7282383 Eh     change       -0.9672407E-02 Eh
   gradient norm :     0.0695110 Eh/α   predicted    -0.6994579E-02 ( -27.69%)
   displ. norm   :     0.0925962 α      lambda       -0.4683842E-02
   maximum displ.:     0.0387303 α      in ANC's #95, #87, #44, ...

........................................................................
.............................. CYCLE    3 ..............................
........................................................................
     iter. time                 ...        0 min,  0.001 sec
 * total energy  :   -11.7308604 Eh     change       -0.2622175E-02 Eh
   gradient norm :     0.0190786 Eh/α   predicted    -0.2362147E-02 (  -9.92%)
   displ. norm   :     0.0251912 α      lambda       -0.3349085E-03
   maximum displ.:     0.0097822 α      in ANC's #87, #61, #95, ...

........................................................................
.............................. CYCLE    4 ..............................
........................................................................
     iter. time                 ...        0 min,  0.001 sec
 * total energy  :   -11.7310919 Eh     change       -0.2314248E-03 Eh
   gradient norm :     0.0104728 Eh/α   predicted    -0.1675690E-03 ( -27.59%)
   displ. norm   :     0.0201543 α      lambda       -0.1330391E-03
   maximum displ.:     0.0097189 α      in ANC's #61, #87, #1, ...

........................................................................
.............................. CYCLE    5 ..............................
........................................................................
     iter. time                 ...        0 min,  0.001 sec
 * total energy  :   -11.7311707 Eh     change       -0.7880923E-04 Eh
   gradient norm :     0.0045936 Eh/α   predicted    -0.6659605E-04 ( -15.50%)
   displ. norm   :     0.0082963 α      lambda       -0.2054823E-04
   maximum displ.:     0.0036487 α      in ANC's #1, #61, #5, ...

........................................................................
.............................. CYCLE    6 ..............................
........................................................................
     iter. time                 ...        0 min,  0.001 sec
 * total energy  :   -11.7311862 Eh     change       -0.1549388E-04 Eh
   gradient norm :     0.0034836 Eh/α   predicted    -0.1048307E-04 ( -32.34%)
   displ. norm   :     0.0104873 α      lambda       -0.1765645E-04
   maximum displ.:     0.0058187 α      in ANC's #1, #3, #61, ...

........................................................................
.............................. CYCLE    7 ..............................
........................................................................
     iter. time                 ...        0 min,  0.001 sec
 * total energy  :   -11.7311975 Eh     change       -0.1129444E-04 Eh
   gradient norm :     0.0022419 Eh/α   predicted    -0.8837959E-05 ( -21.75%)
   displ. norm   :     0.0059111 α      lambda       -0.5178167E-05
   maximum displ.:     0.0038157 α      in ANC's #1, #3, #160, ...

........................................................................
.............................. CYCLE    8 ..............................
........................................................................
     iter. time                 ...        0 min,  0.001 sec
 * total energy  :   -11.7312011 Eh     change       -0.3646443E-05 Eh
   gradient norm :     0.0013848 Eh/α   predicted    -0.2625525E-05 ( -28.00%)
   displ. norm   :     0.0076556 α      lambda       -0.2833374E-05
   maximum displ.:     0.0051697 α      in ANC's #1, #3, #4, ...

........................................................................
.............................. CYCLE    9 ..............................
........................................................................
     iter. time                 ...        0 min,  0.001 sec
 * total energy  :   -11.7312032 Eh     change       -0.2057828E-05 Eh
   gradient norm :     0.0009798 Eh/α   predicted    -0.1423200E-05 ( -30.84%)
   displ. norm   :     0.0017850 α      lambda       -0.5567964E-06
   maximum displ.:     0.0007579 α      in ANC's #61, #1, #2, ...

........................................................................
.............................. CYCLE   10 ..............................
........................................................................
     iter. time                 ...        0 min,  0.001 sec
 * total energy  :   -11.7312038 Eh     change       -0.5920411E-06 Eh
   gradient norm :     0.0003952 Eh/α   predicted    -0.3007796E-06 ( -49.20%)
   displ. norm   :     0.0020485 α      lambda       -0.1737846E-06
   maximum displ.:     0.0012911 α      in ANC's #1, #4, #3, ...

   *** FAILED TO CONVERGE GEOMETRY OPTIMIZATION IN 10 ITERATIONS ***


 ANCopt (total)                0 d,  0 h,  0 min,  0.021 sec
 optimizer setup                ...        0 min,  0.000 sec (  1.074%)
 model hessian                  ...        0 min,  0.001 sec (  5.449%)
 ANC generation                 ...        0 min,  0.003 sec ( 14.195%)
 coordinate transformation      ...        0 min,  0.000 sec (  0.386%)
 single point calculation       ...        0 min,  0.015 sec ( 71.990%)
 optimization log               ...        0 min,  0.001 sec (  3.676%)
 hessian update                 ...        0 min,  0.000 sec (  0.544%)
 rational function              ...        0 min,  0.000 sec (  1.730%)

================
 final structure:
================
ATOM      1  C   HIS A   4     -15.927 -16.148  13.240  1.00  0.00           C  
ATOM      2  O   HIS A   4     -16.499 -15.814  12.222  1.00  0.00           O  
ATOM      3  CG  HIS A   4     -15.237 -18.899  12.030  1.00  0.00           C  
ATOM      4  CD2 HIS A   4     -14.149 -18.109  11.812  1.00  0.00           C  
ATOM      5  ND1 HIS A   4     -15.034 -20.039  11.295  1.00  0.00           N  
ATOM      6  CE1 HIS A   4     -13.835 -19.885  10.676  1.00  0.00           C  
ATOM      7  NE2 HIS A   4     -13.267 -18.723  11.006  1.00  0.00           N  
ATOM      8  HD1 HIS A   4     -15.695 -20.819  11.207  1.00  0.00           H  
ATOM      9  HD2 HIS A   4     -13.969 -17.125  12.228  1.00  0.00           H  
ATOM     10  HE1 HIS A   4     -13.362 -20.609  10.031  1.00  0.00           H  
ATOM     11  N   HIS A   5     -14.936 -15.451  13.846  1.00  0.00           N  
ATOM     12  CA  HIS A   5     -14.358 -14.282  13.199  1.00  0.00           C  
ATOM     13  C   HIS A   5     -13.492 -14.740  12.055  1.00  0.00           C  
ATOM     14  CB  HIS A   5     -13.598 -13.383  14.157  1.00  0.00           C  
ATOM     15  O   HIS A   5     -12.317 -14.977  12.243  1.00  0.00           O  
ATOM     16  H   HIS A   5     -14.402 -15.826  14.636  1.00  0.00           H  
ATOM     17  HA  HIS A   5     -15.208 -13.721  12.774  1.00  0.00           H  
ATOM     18  HB2 HIS A   5     -12.984 -13.970  14.819  1.00  0.00           H  
ATOM     19  HB3 HIS A   5     -12.929 -12.742  13.589  1.00  0.00           H  
ATOM     20  N   ALA A   6     -14.121 -14.902  10.844  1.00  0.00           N  
ATOM     21  CA  ALA A   6     -13.375 -15.289   9.659  1.00  0.00           C  
ATOM     22  C   ALA A   6     -12.376 -14.210   9.341  1.00  0.00           C  
ATOM     23  CB  ALA A   6     -14.280 -15.558   8.472  1.00  0.00           C  
ATOM     24  O   ALA A   6     -12.766 -13.108   9.019  1.00  0.00           O  
ATOM     25  H   ALA A   6     -15.146 -14.892  10.775  1.00  0.00           H  
ATOM     26  HA  ALA A   6     -12.824 -16.205   9.926  1.00  0.00           H  
ATOM     27  HB1 ALA A   6     -13.705 -15.877   7.602  1.00  0.00           H  
ATOM     28  HB2 ALA A   6     -15.017 -16.328   8.701  1.00  0.00           H  
ATOM     29  HB3 ALA A   6     -14.813 -14.648   8.199  1.00  0.00           H  
ATOM     30  N   ALA A   7     -11.048 -14.544   9.446  1.00  0.00           N  
ATOM     31  CA  ALA A   7     -10.011 -13.586   9.123  1.00  0.00           C  
ATOM     32  C   ALA A   7     -10.107 -13.228   7.658  1.00  0.00           C  
ATOM     33  CB  ALA A   7      -8.625 -14.101   9.467  1.00  0.00           C  
ATOM     34  O   ALA A   7     -10.009 -14.108   6.829  1.00  0.00           O  
ATOM     35  H   ALA A   7     -10.746 -15.487   9.695  1.00  0.00           H  
ATOM     36  HA  ALA A   7     -10.233 -12.685   9.716  1.00  0.00           H  
ATOM     37  HB1 ALA A   7      -8.397 -14.984   8.869  1.00  0.00           H  
ATOM     38  HB2 ALA A   7      -7.860 -13.353   9.256  1.00  0.00           H  
ATOM     39  HB3 ALA A   7      -8.556 -14.378  10.519  1.00  0.00           H  
ATOM     40  N   VAL A   8     -10.295 -11.904   7.339  1.00  0.00           N  
ATOM     41  CA  VAL A   8     -10.290 -11.464   5.954  1.00  0.00           C  
ATOM     42  C   VAL A   8      -8.923 -11.726   5.350  1.00  0.00           C  
ATOM     43  CB  VAL A   8     -10.772 -10.007   5.778  1.00  0.00           C  
ATOM     44  O   VAL A   8      -7.984 -10.997   5.603  1.00  0.00           O  
ATOM     45  CG1 VAL A   8     -12.224  -9.873   6.235  1.00  0.00           C  
ATOM     46  CG2 VAL A   8      -9.873  -9.002   6.494  1.00  0.00           C  
ATOM     47  H   VAL A   8     -10.259 -11.177   8.052  1.00  0.00           H  
ATOM     48  HA  VAL A   8     -11.007 -12.118   5.436  1.00  0.00           H  
ATOM     49  HB  VAL A   8     -10.727  -9.787   4.697  1.00  0.00           H  
ATOM     50 HG11 VAL A   8     -12.319 -10.116   7.293  1.00  0.00           H  
ATOM     51 HG12 VAL A   8     -12.596  -8.857   6.094  1.00  0.00           H  
ATOM     52 HG13 VAL A   8     -12.880 -10.550   5.687  1.00  0.00           H  
ATOM     53 HG21 VAL A   8      -9.913  -9.136   7.573  1.00  0.00           H  
ATOM     54 HG22 VAL A   8      -8.832  -9.114   6.187  1.00  0.00           H  
ATOM     55 HG23 VAL A   8     -10.176  -7.975   6.284  1.00  0.00           H  
ATOM     56  N   GLY A   9      -8.765 -12.854   4.551  1.00  0.00           N  
ATOM     57  CA  GLY A   9      -7.448 -13.465   4.464  1.00  0.00           C  
ATOM     58  C   GLY A   9      -6.805 -13.366   3.131  1.00  0.00           C  
ATOM     59  O   GLY A   9      -7.331 -13.803   2.141  1.00  0.00           O  
ATOM     60  H   GLY A   9      -9.524 -13.540   4.523  1.00  0.00           H  
ATOM     61  HA2 GLY A   9      -6.823 -12.979   5.221  1.00  0.00           H  
ATOM     62  HA3 GLY A   9      -7.516 -14.520   4.754  1.00  0.00           H  
ATOM     63  N   GLY A  10      -5.541 -12.787   3.110  1.00  0.00           N  
ATOM     64  CA  GLY A  10      -4.789 -12.763   1.967  1.00  0.00           C  
ATOM     65  H   GLY A  10      -5.171 -12.303   3.934  1.00  0.00           H  
ATOM     66  HA2 GLY A  10      -3.789 -13.111   2.091  1.00  0.00           H  
ATOM     67  HA3 GLY A  10      -5.319 -13.268   1.172  1.00  0.00           H  
END

 Bond Distances (Angstroems)
 ---------------------------
C1-O2=1.2144         C1-N11=1.3544        O2-C1=1.2144         C3-C4=1.3629         C3-N5=1.3712         C4-C3=1.3629         
C4-N7=1.3427         C4-H9=1.0832         N5-C3=1.3712         N5-C6=1.3577         N5-H8=1.0267         C6-N5=1.3577         
C6-N7=1.3353         C6-H10=1.0797        N7-C4=1.3427         N7-C6=1.3353         H8-N5=1.0267         H9-C4=1.0832         
H10-C6=1.0797        N11-C1=1.3544        N11-C12=1.4560       N11-H16=1.0246       C12-N11=1.4560       C12-C13=1.5063       
C12-C14=1.5181       C12-H17=1.1032       C13-C12=1.5063       C13-O15=1.2136       C13-N20=1.3740       C14-C12=1.5181       
C14-H18=1.0763       C14-H19=1.0870       O15-C13=1.2136       H16-N11=1.0246       H17-C12=1.1032       H18-C14=1.0763       
H19-C14=1.0870       N20-C13=1.3740       N20-C21=1.4526       N20-H25=1.0272       C21-N20=1.4526       C21-C22=1.5050       
C21-C23=1.5172       C21-H26=1.1015       C22-C21=1.5050       C22-O24=1.2132       C22-N30=1.3728       C23-C21=1.5172       
C23-H27=1.0905       C23-H28=1.0902       C23-H29=1.0896       O24-C22=1.2132       H25-N20=1.0272       H26-C21=1.1015       
H27-C23=1.0905       H28-C23=1.0902       H29-C23=1.0896       N30-C22=1.3728       N30-C31=1.4486       N30-H35=1.0209       
C31-N30=1.4486       C31-C32=1.5112       C31-C33=1.5177       C31-H36=1.1014       C32-C31=1.5112       C32-O34=1.2130       
C32-N40=1.3749       C33-C31=1.5177       C33-H37=1.0896       C33-H38=1.0903       C33-H39=1.0902       O34-C32=1.2130       
H35-N30=1.0209       H36-C31=1.1014       H37-C33=1.0896       H38-C33=1.0903       H39-C33=1.0902       N40-C32=1.3749       
N40-C41=1.4526       N40-H47=1.0195       C41-N40=1.4526       C41-C42=1.5173       C41-C43=1.5450       C41-H48=1.1000       
C42-C41=1.5173       C42-O44=1.2154       C42-N56=1.3909       C43-C41=1.5450       C43-C45=1.5281       C43-C46=1.5270       
C43-H49=1.1042       O44-C42=1.2154       C45-C43=1.5281       C45-H50=1.0897       C45-H51=1.0908       C45-H52=1.0904       
C46-C43=1.5270       C46-H53=1.0883       C46-H54=1.0906       C46-H55=1.0909       H47-N40=1.0195       H48-C41=1.1000       
H49-C43=1.1042       H50-C45=1.0897       H51-C45=1.0908       H52-C45=1.0904       H53-C46=1.0883       H54-C46=1.0906       
H55-C46=1.0909       N56-C42=1.3909       N56-C57=1.4552       N56-H60=1.0233       C57-N56=1.4552       C57-C58=1.4826       
C57-H61=1.0954       C57-H62=1.0960       C58-C57=1.4826       C58-O59=1.2037       C58-N63=1.3907       O59-C58=1.2037       
H60-N56=1.0233       H61-C57=1.0954       H62-C57=1.0960       N63-C58=1.3907       N63-C64=1.3680       N63-H65=1.0246       
C64-N63=1.3680       C64-H66=1.0664       C64-H67=1.0809       H65-N63=1.0246       H66-C64=1.0664       H67-C64=1.0809       
 C  H  Rav=1.0903 sigma=0.0085  Rmin=1.0664  Rmax=1.1042    25
 C  C  Rav=1.5032 sigma=0.0447  Rmin=1.3629  Rmax=1.5450    12
 N  H  Rav=1.0238 sigma=0.0026  Rmin=1.0195  Rmax=1.0272     7
 N  C  Rav=1.3936 sigma=0.0424  Rmin=1.3353  Rmax=1.4560    16
 O  C  Rav=1.2122 sigma=0.0039  Rmin=1.2037  Rmax=1.2154     6

 selected bond angles (degree)
 --------------------
N11-C1-O2=125.37               N5-C3-C4=106.12                N7-C4-C3=110.82                H9-C4-C3=126.69                
H9-C4-N7=122.48                C6-N5-C3=106.33                H8-N5-C3=125.61                H8-N5-C6=127.99                
N7-C6-N5=111.20                H10-C6-N5=125.72               H10-C6-N7=123.04               C6-N7-C4=105.48                

 selected dihedral angles (degree)
 ---------------------------------
N7-C4-C3-N5=358.30            H9-C4-C3-N5=179.62            C6-N5-C3-C4=  0.28            H8-N5-C3-C4=183.20            
N7-C6-N5-C3=  1.25            N7-C6-N5-H8=178.24            H10-C6-N5-C3=178.83           H10-C6-N5-H8=355.82           
C6-N7-C4-C3=  2.43            C6-N7-C4-H9=181.17            C4-N7-C6-N5=357.75            C4-N7-C6-H10=180.09           

 CMA Distance (Angstroems)
 ---------------------------
R(CMA):  7.4357
           -------------------------------------------------
          |                Final Singlepoint                |
           -------------------------------------------------
         :::::::::::::::::::::::::::::::::::::::::::::::::::::
         ::                     SUMMARY                     ::
         :::::::::::::::::::::::::::::::::::::::::::::::::::::
         :: total energy             -11.731203922662 Eh    ::
         :: total w/o Gsolv          -11.671992144331 Eh    ::
         :: total w/o Gsasa/hb       -11.719142187933 Eh    ::
         :: gradient norm              0.000197549822 Eh/a0 ::
         ::.................................................::
         :: bond energy              -11.950221942427 Eh    ::
         :: angle energy               0.050164045419 Eh    ::
         :: torsion energy             0.019506697451 Eh    ::
         :: repulsion energy           0.759341840340 Eh    ::
         :: electrostat energy        -0.476538696186 Eh    ::
         :: dispersion energy         -0.056925420985 Eh    ::
         :: HB energy                 -0.003788414858 Eh    ::
         :: XB energy                  0.000000000000 Eh    ::
         :: bonded atm energy         -0.020123016592 Eh    ::
         :: external energy            0.000000000000 Eh    ::
         :: -> Gsolv                  -0.059211778331 Eh    ::
         ::    -> Gborn               -0.047150043602 Eh    ::
         ::    -> Gsasa                0.003958365605 Eh    ::
         ::    -> Ghb                 -0.016385039589 Eh    ::
         ::    -> Gshift               0.000364939255 Eh    ::
         :: add. restraining           0.006592763507 Eh    ::
         :: total charge               0.000000000000 e     ::
         ::.................................................::
         :: atomisation energy         0.000000000000 Eh    ::
         :::::::::::::::::::::::::::::::::::::::::::::::::::::

           -------------------------------------------------
          |                Property Printout                |
           -------------------------------------------------
           -------------------------------------------------
          |                Geometry Summary                 |
           -------------------------------------------------

      molecular mass/u    :      492.5296131
   center of mass at/Å    :      -11.4048326     -14.1682605       8.5237593
  moments of inertia/u·Å² :        0.2527448E+04   0.1192668E+05   0.1320948E+05
rotational constants/cm⁻¹ :        0.6669823E-02   0.1413439E-02   0.1276177E-02

 * 59 selected distances

     #   Z          #   Z                                           value/Å
     3   6  C       4   6  C                                      1.3629355
     3   6  C       5   7  N                                      1.3711684
     5   7  N       6   6  C                                      1.3577215
     4   6  C       7   7  N                                      1.3426977
     6   6  C       7   7  N                                      1.3352729
     5   7  N       8   1  H                                      1.0266943
     4   6  C       9   1  H                                      1.0831951
     6   6  C      10   1  H                                      1.0797065
     1   6  C      11   7  N                                      1.3544236
    11   7  N      12   6  C                                      1.4560034
    13   6  C      15   8  O                                      1.2136275
    11   7  N      16   1  H                                      1.0245723
    12   6  C      17   1  H                                      1.1032004
    14   6  C      18   1  H                                      1.0763415
    14   6  C      19   1  H                                      1.0870087
    13   6  C      20   7  N                                      1.3740273
    20   7  N      21   6  C                                      1.4525675
    21   6  C      23   6  C                                      1.5172230
    22   6  C      24   8  O                                      1.2132498
    20   7  N      25   1  H                                      1.0271975
    21   6  C      26   1  H                                      1.1014860
    23   6  C      27   1  H                                      1.0904880
    23   6  C      28   1  H                                      1.0902277
    23   6  C      29   1  H                                      1.0896410
    22   6  C      30   7  N                                      1.3727667
    30   7  N      31   6  C                                      1.4485719
    31   6  C      33   6  C                                      1.5176517
    32   6  C      34   8  O                                      1.2129863
    30   7  N      35   1  H                                      1.0208940
    31   6  C      36   1  H                                      1.1013555
    33   6  C      37   1  H                                      1.0896307
    33   6  C      38   1  H                                      1.0903322
    33   6  C      39   1  H                                      1.0902058
    32   6  C      40   7  N                                      1.3748896
    40   7  N      41   6  C                                      1.4525795
    42   6  C      44   8  O                                      1.2153511
    43   6  C      45   6  C                                      1.5281074 (max)
    43   6  C      46   6  C                                      1.5269621
    40   7  N      47   1  H                                      1.0195453 (min)
    41   6  C      48   1  H                                      1.0999947
    43   6  C      49   1  H                                      1.1042097
    45   6  C      50   1  H                                      1.0897429
    45   6  C      51   1  H                                      1.0907675
    45   6  C      52   1  H                                      1.0904416
    46   6  C      53   1  H                                      1.0882701
    46   6  C      54   1  H                                      1.0905740
    46   6  C      55   1  H                                      1.0908917
    42   6  C      56   7  N                                      1.3908671
    56   7  N      57   6  C                                      1.4552163
    57   6  C      58   6  C                                      1.4825914
    58   6  C      59   8  O                                      1.2037266
    56   7  N      60   1  H                                      1.0232904
    57   6  C      61   1  H                                      1.0953546
    57   6  C      62   1  H                                      1.0960289
    58   6  C      63   7  N                                      1.3906565
    63   7  N      64   6  C                                      1.3679989
    63   7  N      65   1  H                                      1.0246140
    64   6  C      66   1  H                                      1.0663600
    64   6  C      67   1  H                                      1.0809269

 * 5 distinct bonds (by element types)

   Z      Z             #   av. dist./Å        max./Å        min./Å
   1 H    6 C          25     1.0902553     1.1042097     1.0663600
   6 C    6 C           6     1.4892452     1.5281074     1.3629355
   1 H    7 N           7     1.0238297     1.0271975     1.0195453
   6 C    7 N          16     1.3935893     1.4560034     1.3352729
   6 C    8 O           5     1.2117883     1.2153511     1.2037266


optimized geometry written to: xtbopt.pdb


           -------------------------------------------------
          | TOTAL ENERGY              -11.731203922662 Eh   |
          | GRADIENT NORM               0.000197549822 Eh/α |
           -------------------------------------------------
########################################################################
[WARNING] Runtime exception occurred
-1- gfnff_setup: Could not read topology file.
########################################################################

------------------------------------------------------------------------
 unit  open   action     filename
   10 false : read       xtb_settings.inp
   10 false : read       substructure_13.pdb
   10 false : read       xtb_settings.inp
   10 false : written    gfnff_topo
   10 false : written    gfnff_adjacency
   10 false : written    gfnff_charges
   10 false : deleted    .xtboptok
   10 false : replaced   xtbopt.log
   11 false : created    .xtboptok
   11 false : replaced   gfnff_charges
   10 false : replaced   xtbopt.pdb

------------------------------------------------------------------------
 * finished run on 2025/05/27 at 09:37:36.629     
------------------------------------------------------------------------
 total:
 * wall-time:     0 d,  0 h,  0 min,  0.030 sec
 *  cpu-time:     0 d,  0 h,  0 min,  0.030 sec
 * ratio c/w:     0.999 speedup
 SCF:
 * wall-time:     0 d,  0 h,  0 min,  0.002 sec
 *  cpu-time:     0 d,  0 h,  0 min,  0.002 sec
 * ratio c/w:     0.999 speedup
 ANC optimizer:
 * wall-time:     0 d,  0 h,  0 min,  0.023 sec
 *  cpu-time:     0 d,  0 h,  0 min,  0.023 sec
 * ratio c/w:     0.998 speedup

