      -----------------------------------------------------------      
     |                   =====================                   |     
     |                           x T B                           |     
     |                   =====================                   |     
     |                         S. Grimme                         |     
     |          Mulliken Center for Theoretical Chemistry        |     
     |                    University of Bonn                     |     
      -----------------------------------------------------------      

   * xtb version 6.6.1 (8d0f1dd) compiled by 'conda@1efc2f54142f' on 2023-08-01

   xtb is free software: you can redistribute it and/or modify it under
   the terms of the GNU Lesser General Public License as published by
   the Free Software Foundation, either version 3 of the License, or
   (at your option) any later version.
   
   xtb is distributed in the hope that it will be useful,
   but WITHOUT ANY WARRANTY; without even the implied warranty of
   MERCHANTABILITY or FITNESS FOR A PARTICULAR PURPOSE.  See the
   GNU Lesser General Public License for more details.
   
   Cite this work as:
   * C. Bannwarth, E. Caldeweyher, S. Ehlert, A. Hansen, P. Pracht,
     J. Seibert, S. Spicher, S. Grimme, WIREs Comput. Mol. Sci., 2020, 11,
     e01493. DOI: 10.1002/wcms.1493
   
   for GFN2-xTB:
   * C. Bannwarth, S. Ehlert and S. Grimme., J. Chem. Theory Comput., 2019,
     15, 1652-1671. DOI: 10.1021/acs.jctc.8b01176
   for GFN1-xTB:
   * S. Grimme, C. Bannwarth, P. Shushkov, J. Chem. Theory Comput., 2017,
     13, 1989-2009. DOI: 10.1021/acs.jctc.7b00118
   for GFN0-xTB:
   * P. Pracht, E. Caldeweyher, S. Ehlert, S. Grimme, ChemRxiv, 2019, preprint.
     DOI: 10.26434/chemrxiv.8326202.v1
   for GFN-FF:
   * S. Spicher and S. Grimme, Angew. Chem. Int. Ed., 2020, 59, 15665-15673.
     DOI: 10.1002/anie.202004239
   
   for ALPB and GBSA implicit solvation:
   * S. Ehlert, M. Stahn, S. Spicher, S. Grimme, J. Chem. Theory Comput.,
     2021, 17, 4250-4261. DOI: 10.1021/acs.jctc.1c00471
   
   for DFT-D4:
   * E. Caldeweyher, C. Bannwarth and S. Grimme, J. Chem. Phys., 2017,
     147, 034112. DOI: 10.1063/1.4993215
   * E. Caldeweyher, S. Ehlert, A. Hansen, H. Neugebauer, S. Spicher,
     C. Bannwarth and S. Grimme, J. Chem. Phys., 2019, 150, 154122.
     DOI: 10.1063/1.5090222
   * E. Caldeweyher, J.-M. Mewes, S. Ehlert and S. Grimme, Phys. Chem. Chem. Phys.
     2020, 22, 8499-8512. DOI: 10.1039/D0CP00502A
   
   for sTDA-xTB:
   * S. Grimme and C. Bannwarth, J. Chem. Phys., 2016, 145, 054103.
     DOI: 10.1063/1.4959605
   
   in the mass-spec context:
   * V. Asgeirsson, C. Bauer and S. Grimme, Chem. Sci., 2017, 8, 4879.
     DOI: 10.1039/c7sc00601b
   * J. Koopman and S. Grimme, ACS Omega 2019, 4, 12, 15120-15133.
     DOI: 10.1021/acsomega.9b02011
   
   for metadynamics refer to:
   * S. Grimme, J. Chem. Theory Comput., 2019, 155, 2847-2862
     DOI: 10.1021/acs.jctc.9b00143
   
   for SPH calculations refer to:
   * S. Spicher and S. Grimme, J. Chem. Theory Comput., 2021, 17, 1701-1714
     DOI: 10.1021/acs.jctc.0c01306
   
   with help from (in alphabetical order)
   P. Atkinson, C. Bannwarth, F. Bohle, G. Brandenburg, E. Caldeweyher
   M. Checinski, S. Dohm, S. Ehlert, S. Ehrlich, I. Gerasimov, C. Hölzer
   A. Katbashev, J. Koopman, C. Lavigne, S. Lehtola, F. März, M. Müller,
   F. Musil, H. Neugebauer, J. Pisarek, C. Plett, P. Pracht, F. Pultar,
   J. Seibert, P. Shushkov, S. Spicher, M. Stahn, M. Steiner, T. Strunk,
   J. Stückrath, T. Rose, and J. Unsleber
   
 * started run on 2025/05/27 at 09:37:46.142     

           -------------------------------------------------
          |                Calculation Setup                |
           -------------------------------------------------

          program call               : xtb substructure_33.pdb --gfnff --input xtb_settings.inp --opt vtight --alpb water --verbose
          coordinate file            : substructure_33.pdb
          xtbhome directory          : /home/dargen3
          path for xtb               : /home/dargen3
          xcontrol input file        : xtb_settings.inp
          omp threads                :                     1

$$$$$$$$$$$$$$$$$$$$$$$$$$$$$$$$$$$$$$$$$$$$$$$$$$$$$$$$$$$$$$$$$$$$$$$$
 CONSTRAINTS & SCANS: DEBUG SECTION
$$$$$$$$$$$$$$$$$$$$$$$$$$$$$$$$$$$$$$$$$$$$$$$$$$$$$$$$$$$$$$$$$$$$$$$$
   ID    Z sym.   atoms
    1    6  C     1, 3, 4, 6, 12-14, 21-23, 31-33, 41-43, 45, 46, 57, 58, 64
    2    8  O     2, 15, 24, 34, 44, 59
    3    7  N     5, 7, 11, 20, 30, 40, 56, 63
    4    1  H     8-10, 16-19, 25-29, 35-39, 47-55, 60-62, 65-67
> constrain
-> atoms: 1, 2, 3, 4, 5, 6, 7, 8, 9, 10, 11, 12, 13, 14, 15, 16, 17, 18, 19, 20, 21, 22, 23, 24, 25, 26, 27, 28, 29, 31, 40, 41, 42, 43, 44, 45, 46, 47, 48, 49, 50, 51, 52, 53, 54, 55, 56, 57, 58, 59, 60, 61, 62, 63, 64, 65, 66, 67
--> 1: 1
--> 2: 2
--> 3: 3
--> 4: 4
--> 5: 5
--> 6: 6
--> 7: 7
--> 8: 8
--> 9: 9
--> 10: 10
--> 11: 11
--> 12: 12
--> 13: 13
--> 14: 14
--> 15: 15
--> 16: 16
--> 17: 17
--> 18: 18
--> 19: 19
--> 20: 20
--> 21: 21
--> 22: 22
--> 23: 23
--> 24: 24
--> 25: 25
--> 26: 26
--> 27: 27
--> 28: 28
--> 29: 29
--> 30: 31
--> 31: 40
--> 32: 41
--> 33: 42
--> 34: 43
--> 35: 44
--> 36: 45
--> 37: 46
--> 38: 47
--> 39: 48
--> 40: 49
--> 41: 50
--> 42: 51
--> 43: 52
--> 44: 53
--> 45: 54
--> 46: 55
--> 47: 56
--> 48: 57
--> 49: 58
--> 50: 59
--> 51: 60
--> 52: 61
--> 53: 62
--> 54: 63
--> 55: 64
--> 56: 65
--> 57: 66
--> 58: 67
-> force constant=1.0
$$$$$$$$$$$$$$$$$$$$$$$$$$$$$$$$$$$$$$$$$$$$$$$$$$$$$$$$$$$$$$$$$$$$$$$$

molecular fragmentation (1/2 indicates fragments):
1122222222111111111111111111111111111111111111111111111111111111111
# atoms in fragment 1/2:    59     8
 fragment masses (1/2) :      425.46       67.07
CMA distance (Bohr)    :  14.385
constraining FC (au)   :  1.0000
           -------------------------------------------------
          |                   Constraints                   |
           -------------------------------------------------

 * 58 constrained atom positions
   positions refering to input geometry

     #   Z                                   position/Å      displ./Å
     1   6 C    -15.9090015   -16.1880015    13.2210012     0.0000000
     2   8 O    -16.4430015   -15.8510015    12.1860011     0.0000000
     3   6 C    -15.2440014   -18.9860018    12.1180011     0.0000000
     4   6 C    -14.3600013   -18.1600017    11.4530011     0.0000000
     5   7 N    -14.7540014   -20.2550019    11.9690011     0.0000000
     6   6 C    -13.6040013   -20.1310019    11.2280010     0.0000000
     7   7 N    -13.3610012   -18.8800018    10.9140010     0.0000000
     8   1 H    -15.1660014   -21.1150020    12.3310011     0.0000000
     9   1 H    -14.4360013   -17.0860016    11.3790011     0.0000000
    10   1 H    -12.9690012   -20.9560019    10.9300010     0.0000000
    11   7 N    -14.9460014   -15.4360014    13.8480013     0.0000000
    12   6 C    -14.3680013   -14.2880013    13.1920012     0.0000000
    13   6 C    -13.4930013   -14.7380014    12.0550011     0.0000000
    14   6 C    -13.6060013   -13.3720012    14.1600013     0.0000000
    15   8 O    -12.3140011   -14.9570014    12.2380011     0.0000000
    16   1 H    -14.4480013   -15.7840015    14.6670014     0.0000000
    17   1 H    -15.2070014   -13.7130013    12.7660012     0.0000000
    18   1 H    -13.0040012   -13.9780013    14.8420014     0.0000000
    19   1 H    -12.8930012   -12.7700012    13.5890013     0.0000000
    20   7 N    -14.1210013   -14.8990014    10.8440010     0.0000000
    21   6 C    -13.3720012   -15.2880014     9.6620009     0.0000000
    22   6 C    -12.3740011   -14.2110013     9.3420009     0.0000000
    23   6 C    -14.2790013   -15.5570014     8.4720008     0.0000000
    24   8 O    -12.7640012   -13.1090012     9.0190008     0.0000000
    25   1 H    -15.1460014   -14.8900014    10.7750010     0.0000000
    26   1 H    -12.8260012   -16.2060015     9.9280009     0.0000000
    27   1 H    -13.7050013   -15.8780015     7.6020007     0.0000000
    28   1 H    -15.0190014   -16.3250015     8.7000008     0.0000000
    29   1 H    -14.8110014   -14.6460014     8.1980008     0.0000000
    31   6 C    -10.0120009   -13.5880013     9.1230008     0.0000000
    40   7 N    -10.3830010   -11.9150011     7.3340007     0.0000000
    41   6 C    -10.2890010   -11.4620011     5.9580006     0.0000000
    42   6 C     -8.8810008   -11.7500011     5.4610005     0.0000000
    43   6 C    -10.7190010    -9.9960009     5.7580005     0.0000000
    44   8 O     -7.9390007   -11.2010010     5.9950006     0.0000000
    45   6 C    -12.1830011    -9.8150009     6.1560006     0.0000000
    46   6 C     -9.8140009    -9.0210008     6.5100006     0.0000000
    47   1 H    -10.3110010   -11.1850010     8.0420007     0.0000000
    48   1 H    -10.9800010   -12.1050011     5.3860005     0.0000000
    49   1 H    -10.6220010    -9.7780009     4.6800004     0.0000000
    50   1 H    -12.3270011   -10.0560009     7.2090007     0.0000000
    51   1 H    -12.5150012    -8.7880008     6.0030006     0.0000000
    52   1 H    -12.8370012   -10.4700010     5.5810005     0.0000000
    53   1 H     -9.9070009    -9.1480008     7.5870007     0.0000000
    54   1 H     -8.7660008    -9.1760009     6.2520006     0.0000000
    55   1 H    -10.0680009    -7.9850007     6.2830006     0.0000000
    56   7 N     -8.6890008   -12.6960012     4.4600004     0.0000000
    57   6 C     -7.4510007   -13.4620012     4.4550004     0.0000000
    58   6 C     -6.7310006   -13.4710012     3.1690003     0.0000000
    59   8 O     -7.1340007   -14.1270013     2.2310002     0.0000000
    60   1 H     -9.4890009   -13.2230012     4.1060004     0.0000000
    61   1 H     -6.8100006   -13.0420012     5.2420005     0.0000000
    62   1 H     -7.6690007   -14.4950013     4.7650004     0.0000000
    63   7 N     -5.5790005   -12.7240012     3.1260003     0.0000000
    64   6 C     -4.7940004   -12.6990012     1.9410002     0.0000000
    65   1 H     -5.3870005   -11.9870011     3.8070004     0.0000000
    66   1 H     -3.8010004   -13.0720012     2.1640002     0.0000000
    67   1 H     -5.2570005   -13.3940012     1.2200001     0.0000000

     applying 1653 atom pairwise harmonic potentials
       applied force constant per pair:     0.0175439
     effective force constant per atom:     1.0000000
         constraining energy/grad norm:     0.0000000     0.0000000

     total constraint energy/grad norm:     0.0000000     0.0000000

          charge from pdb residues: 0

          entering GFN-FF setup routine... 67

          ==================== Thresholds ====================
          CN  :   150.00000
          rep :   500.00000
          disp:  2500.00000
          HB1 :   250.00000
          HB2 :   450.00000

          Pauling EN used:
          Z : 1  EN :  2.20
          Z : 6  EN :  2.55
          Z : 7  EN :  3.04
          Z : 8  EN :  3.44
          electric field strengths (au): 0.000

           ------------------------------------------------- 
          |           Force Field Initialization            |
           ------------------------------------------------- 

          distances ...
          ----------------------------------------
          generating topology and atomic info file ...
          pair mat ...
          computing topology distances matrix with Floyd-Warshall algo ...
          making topology EEQ charges ...
          #fragments for EEQ constrain from pdb file: 7
          ----------------------------------------
          generating topology and atomic info file ...
          pair mat ...
          computing topology distances matrix with Floyd-Warshall algo ...
          making topology EEQ charges ...
          #fragments for EEQ constrain from pdb file: 7
          rings ...
          # BATM   602
          # H in HB   24
          doing iterative Hueckel for 8 subsystem(s) ...
          iterative Hueckel run to get P ...
Hueckel system :  1 charge :   0 ndim/Nel :    3    3   eps(HOMO/LUMO)   -0.957489   -0.957489
Hueckel system :  2 charge :   0 ndim/Nel :    5    5   eps(HOMO/LUMO)   -0.636356    3.209855
Hueckel system :  3 charge :   0 ndim/Nel :    3    4   eps(HOMO/LUMO)   -0.902181   -0.902181
Hueckel system :  5 charge :   0 ndim/Nel :    3    4   eps(HOMO/LUMO)   -0.899773   -0.899773
Hueckel system :  6 charge :   0 ndim/Nel :    3    4   eps(HOMO/LUMO)   -0.891565   -0.891565
Hueckel system :  7 charge :   0 ndim/Nel :    3    4   eps(HOMO/LUMO)   -0.916334   -0.916334
Hueckel system :  8 charge :   0 ndim/Nel :    4    5   eps(HOMO/LUMO)    1.305150    1.305150
WARNING: probably wrong pi occupation for system 8. Second attempt with Nel=Nel-1!
 at,nb,topo%hyb,Npiel:          58  C             3           2           1
 at,nb,topo%hyb,Npiel:          59  O             1           2           1
 at,nb,topo%hyb,Npiel:          63  N             3           3           2
 at,nb,topo%hyb,Npiel:          64  C             3           2           1

          eigenvalues
 #    :           1          2          3          4
 occ. :        2.000      1.987      0.013      0.000
 eps  :        -4.347     -2.183      1.305      3.392
Hueckel system :  8 charge :   0 ndim/Nel :    4    4   eps(HOMO/LUMO)   -2.182674    1.305150

  atom   neighbors  erfCN metchar sp-hybrid imet pi  qest     coordinates
    1   C      2    1.93   0.00        -2    0    1  -0.003  -30.063653  -30.590887   24.984069
    2   O      1    0.98   0.00         2    0    1  -0.236  -31.072767  -29.954049   23.028203
    3   C      2    2.12   0.00        -2    0    1  -0.170  -28.806985  -35.878340   22.899701
    4   C      3    3.06   0.00         2    0    1   0.113  -27.136467  -34.317426   21.643033
    5   N      3    2.88   0.00         3    0    1  -0.024  -27.881019  -38.276403   22.618132
    6   C      3    3.11   0.00         2    0    1   0.070  -25.707834  -38.042077   21.217845
    7   N      2    2.01   0.00         2    0    1  -0.131  -25.248631  -35.678029   20.624471
    8   H      1    0.98   0.00         0    0    0   0.149  -28.659586  -39.901567   23.302213
    9   H      1    0.97   0.00         0    0    0   0.117  -27.280086  -32.287861   21.503194
   10   H      1    0.97   0.00         0    0    0   0.116  -24.507858  -39.601101   20.654707
   11   N      3    2.79   0.00        -3    0    1  -0.110  -28.243847  -29.169812   26.168927
   12   C      4    3.49   0.00         3    0    0   0.030  -27.151585  -27.000407   24.929267
   13   C      3    2.80   0.00         2    0    1   0.164  -25.498075  -27.850784   22.780648
   14   C      3    2.78   0.00         3    0    0  -0.044  -25.711614  -25.269418   26.758522
   15   O      1    0.98   0.00         2    0    1  -0.378  -23.270087  -28.264634   23.126468
   16   H      1    0.98   0.00         0    0    0   0.124  -27.302763  -29.827437   27.716613
   17   H      1    0.97   0.01         0    0    0   0.069  -28.737065  -25.913814   24.124244
   18   H      1    0.97   0.00         0    0    0   0.073  -24.573999  -26.414592   28.047315
   19   H      1    0.97   0.00         0    0    0   0.073  -24.364239  -24.131803   25.679488
   20   N      3    2.80   0.00        -3    0    1  -0.178  -26.684823  -28.155030   20.492190
   21   C      4    3.49   0.00         3    0    0   0.036  -25.269418  -28.890133   18.258534
   22   C      3    2.80   0.00         2    0    1   0.166  -23.383471  -26.854898   17.653821
   23   C      4    3.49   0.00         3    0    0  -0.060  -26.983399  -29.398469   16.009760
   24   O      1    0.98   0.00         2    0    1  -0.376  -24.120464  -24.772420   17.043440
   25   H      1    0.98   0.00         0    0    0   0.137  -28.621792  -28.138022   20.361799
   26   H      1    0.97   0.01         0    0    0   0.067  -24.237627  -30.624902   18.761201
   27   H      1    0.97   0.00         0    0    0   0.069  -25.898697  -30.005071   14.365698
   28   H      1    0.97   0.00         0    0    0   0.069  -28.381797  -30.849779   16.440617
   29   H      1    0.97   0.00         0    0    0   0.069  -27.988734  -27.676929   15.491975
   30   N      3    2.80   0.00        -3    0    1  -0.184  -20.873915  -27.482287   17.869250
   31   C      4    3.49   0.00         3    0    0   0.034  -18.919938  -25.677599   17.239971
   32   C      3    2.80   0.00         2    0    1   0.172  -19.146705  -25.002966   14.467743
   33   C      4    3.49   0.00         3    0    0  -0.060  -16.291329  -26.645138   17.846574
   34   O      1    0.98   0.00         2    0    1  -0.377  -18.895372  -26.660256   12.904940
   35   H      1    0.98   0.00         0    0    0   0.137  -20.303217  -29.264299   18.339792
   36   H      1    0.97   0.01         0    0    0   0.068  -19.322450  -23.971176   18.362469
   37   H      1    0.97   0.00         0    0    0   0.070  -15.883148  -28.319436   16.720297
   38   H      1    0.97   0.00         0    0    0   0.070  -14.853247  -25.235403   17.411937
   39   H      1    0.97   0.00         0    0    0   0.070  -16.123143  -27.157254   19.834565
   40   N      3    2.79   0.00        -3    0    1  -0.200  -19.621026  -22.516087   13.859251
   41   C      4    3.49   0.00         3    0    0   0.028  -19.443392  -21.660041   11.258988
   42   C      3    2.80   0.00         2    0    1   0.145  -16.782658  -22.204282   10.319794
   43   C      4    3.48   0.00         3    0    0  -0.010  -20.255974  -18.889702   10.881043
   44   O      1    0.98   0.00         2    0    1  -0.391  -15.002536  -21.166822   11.328908
   45   C      4    3.49   0.00         3    0    0  -0.059  -23.022533  -18.547662   11.633154
   46   C      4    3.49   0.00         3    0    0  -0.059  -18.545772  -17.047219   12.302117
   47   H      1    0.98   0.00         0    0    0   0.128  -19.484966  -21.136587   15.197177
   48   H      1    0.97   0.01         0    0    0   0.059  -20.749193  -22.875135   10.178065
   49   H      1    0.97   0.01         0    0    0   0.050  -20.072671  -18.477742    8.843918
   50   H      1    0.97   0.00         0    0    0   0.052  -23.294654  -19.003086   13.623036
   51   H      1    0.97   0.00         0    0    0   0.052  -23.649922  -16.606913   11.344026
   52   H      1    0.97   0.00         0    0    0   0.052  -24.258414  -19.785433   10.546562
   53   H      1    0.97   0.00         0    0    0   0.052  -18.721517  -17.287215   14.337352
   54   H      1    0.97   0.00         0    0    0   0.052  -16.565339  -17.340127   11.814568
   55   H      1    0.97   0.00         0    0    0   0.052  -19.025763  -15.089463   11.873149
   56   N      3    2.79   0.00        -3    0    1  -0.144  -16.419830  -23.991963    8.428179
   57   C      4    3.50   0.00         3    0    0   0.004  -14.080349  -25.439493    8.418730
   58   C      3    2.80   0.00         2    0    1   0.192  -12.719747  -25.456501    5.988542
   59   O      1    0.98   0.00         2    0    1  -0.364  -13.481306  -26.696161    4.215979
   60   H      1    0.98   0.00         0    0    0   0.140  -17.931611  -24.987849    7.759215
   61   H      1    0.97   0.01         0    0    0   0.086  -12.869035  -24.645808    9.905944
   62   H      1    0.97   0.01         0    0    0   0.086  -14.492310  -27.391580    9.004545
   63   N      3    2.79   0.00         3    0    1  -0.222  -10.542782  -24.044875    5.907284
   64   C      3    2.79   0.00         2    0    1  -0.007   -9.059347  -23.997632    3.667958
   65   H      1    0.98   0.00         0    0    0   0.123  -10.179955  -22.652147    7.194187
   66   H      1    0.97   0.00         0    0    0   0.053   -7.182849  -24.702500    4.089367
   67   H      1    0.97   0.01         0    0    0   0.053   -9.934290  -25.310992    2.305466

molecular fragment  # atoms  topo charge
       1            10            -0.000
       2             9             0.000
       3            10             0.000
       4            10            -0.000
       5            16            -0.000
       6             7             0.000
       7             5            -0.000


          #atoms :   67
          #bonds :   66

 bond atoms        type  in ring    R      R0    piBO    fqq  kbond(tot)  alp
 O  C     2    1      2    0     1.212   0.997   0.793   1.015  -0.243   0.584
 C  C     4    3      2    5     1.381   1.212   0.695   1.047  -0.271   0.491
 N  C     5    3      2    5     1.368   1.251   0.386   1.001  -0.206   0.524
 C  N     6    5      2    5     1.374   1.252   0.686   1.040  -0.274   0.524
 N  C     7    4      2    5     1.344   1.226   0.563   1.047  -0.241   0.519
 N  C     7    6      2    5     1.312   1.239   0.504   1.047  -0.230   0.519
 H  N     8    5      1    0     1.020   0.894 -99.000   1.046  -0.176   0.551
 H  C     9    4      1    0     1.079   0.965 -99.000   1.000  -0.174   0.490
 H  C    10    6      1    0     1.083   0.967 -99.000   1.000  -0.174   0.490
 N  C    11    1      2    0     1.373   1.214   0.508   1.020  -0.229   0.524
 C  N    12   11      1    0     1.443   1.326 -99.000   1.046  -0.153   0.496
 C  C    13   12      1    0     1.504   1.332 -99.000   1.000  -0.160   0.475
 C  C    14   12      1    0     1.535   1.331 -99.000   1.038  -0.154   0.468
 O  C    15   13      2    0     1.213   1.031   0.857   1.047  -0.262   0.584
 H  N    16   11      1    0     1.020   0.890 -99.000   1.047  -0.176   0.551
 H  C    17   12      1    0     1.103   0.976 -99.000   1.005  -0.162   0.482
 H  C    18   14      1    0     1.093   0.938 -99.000   1.045  -0.168   0.482
 H  C    19   14      1    0     1.094   0.938 -99.000   1.045  -0.168   0.482
 N  C    20   13      2    0     1.374   1.264   0.502   1.047  -0.234   0.524
 C  N    21   20      1    0     1.452   1.326 -99.000   1.047  -0.153   0.496
 C  C    22   21      1    0     1.503   1.333 -99.000   1.000  -0.160   0.475
 C  C    23   21      1    0     1.520   1.371 -99.000   1.043  -0.155   0.468
 O  C    24   22      2    0     1.213   1.031   0.857   1.047  -0.262   0.584
 H  N    25   20      1    0     1.027   0.890 -99.000   1.047  -0.176   0.551
 H  C    26   21      1    0     1.101   0.976 -99.000   1.003  -0.162   0.482
 H  C    27   23      1    0     1.091   0.976 -99.000   1.046  -0.169   0.482
 H  C    28   23      1    0     1.091   0.976 -99.000   1.046  -0.169   0.482
 H  C    29   23      1    0     1.090   0.976 -99.000   1.046  -0.169   0.482
 N  C    30   22      2    0     1.374   1.264   0.503   1.047  -0.234   0.524
 C  N    31   30      1    0     1.446   1.326 -99.000   1.047  -0.153   0.496
 C  C    32   31      1    0     1.515   1.332 -99.000   1.000  -0.160   0.475
 C  C    33   31      1    0     1.517   1.371 -99.000   1.042  -0.155   0.468
 O  C    34   32      2    0     1.213   1.031   0.856   1.047  -0.261   0.584
 H  N    35   30      1    0     1.021   0.890 -99.000   1.047  -0.176   0.551
 H  C    36   31      1    0     1.102   0.976 -99.000   1.004  -0.162   0.482
 H  C    37   33      1    0     1.089   0.976 -99.000   1.046  -0.169   0.482
 H  C    38   33      1    0     1.090   0.976 -99.000   1.046  -0.169   0.482
 H  C    39   33      1    0     1.090   0.976 -99.000   1.046  -0.169   0.482
 N  C    40   32      2    0     1.378   1.263   0.504   1.047  -0.235   0.524
 C  N    41   40      1    0     1.452   1.326 -99.000   1.047  -0.153   0.496
 C  C    42   41      1    0     1.521   1.332 -99.000   1.001  -0.160   0.475
 C  C    43   41      1    0     1.541   1.370 -99.000   1.027  -0.152   0.468
 O  C    44   42      2    0     1.214   1.030   0.860   1.047  -0.262   0.584
 C  C    45   43      1    0     1.528   1.370 -99.000   1.016  -0.151   0.468
 C  C    46   43      1    0     1.528   1.370 -99.000   1.016  -0.151   0.468
 H  N    47   40      1    0     1.019   0.890 -99.000   1.047  -0.176   0.551
 H  C    48   41      1    0     1.104   0.976 -99.000   1.007  -0.162   0.482
 H  C    49   43      1    0     1.104   0.976 -99.000   1.030  -0.166   0.482
 H  C    50   45      1    0     1.090   0.976 -99.000   1.045  -0.168   0.482
 H  C    51   45      1    0     1.090   0.976 -99.000   1.045  -0.168   0.482
 H  C    52   45      1    0     1.090   0.976 -99.000   1.045  -0.168   0.482
 H  C    53   46      1    0     1.088   0.976 -99.000   1.045  -0.168   0.482
 H  C    54   46      1    0     1.090   0.976 -99.000   1.045  -0.168   0.482
 H  C    55   46      1    0     1.091   0.976 -99.000   1.045  -0.168   0.482
 N  C    56   42      2    0     1.391   1.264   0.497   1.047  -0.233   0.524
 C  N    57   56      1    0     1.456   1.326 -99.000   1.030  -0.151   0.496
 C  C    58   57      1    0     1.474   1.333 -99.000   1.015  -0.162   0.475
 O  C    59   58      2    0     1.213   1.018   0.930   1.047  -0.274   0.584
 H  N    60   56      1    0     1.021   0.890 -99.000   1.047  -0.176   0.551
 H  C    61   57      1    0     1.098   0.977 -99.000   1.019  -0.164   0.482
 H  C    62   57      1    0     1.100   0.977 -99.000   1.019  -0.164   0.482
 N  C    63   58      2    0     1.374   1.292   0.346   1.047  -0.203   0.524
 C  N    64   63      2    0     1.422   1.190   0.906   1.008  -0.302   0.524
 H  N    65   63      1    0     1.022   0.890 -99.000   1.047  -0.176   0.551
 H  C    66   64      1    0     1.084   0.950 -99.000   1.028  -0.179   0.490
 H  C    67   64      1    0     1.103   0.950 -99.000   1.028  -0.179   0.490
          #angl  :   111

 angle atoms        phi0    phi      FC  pi rings
    1   11    2   145.000 123.120   0.083 F   0
    3    5    4   145.000 105.849   0.109 F   5
    4    7    3   109.000 110.399   0.261 F   5
    4    9    3   120.000 125.686   0.201 F   0
    4    9    7   120.000 123.909   0.203 F   0
    5    6    3   113.000 105.950   0.088 F   5
    5    8    3   113.000 126.769   0.212 F   0
    5    8    6   113.000 127.280   0.150 F   0
    6    7    5   109.000 111.721   0.267 F   5
    6   10    5   120.000 124.791   0.204 F   0
    6   10    7   120.000 123.487   0.203 F   0
    7    6    4   105.000 106.082   0.284 F   5
   11   12    1   115.000 120.594   0.415 F   0
   11   16    1   115.000 121.484   0.341 F   0
   11   16   12   104.000 116.167   0.183 F   0
   12   13   11   109.500 109.801   0.307 F   0
   12   14   11   109.500 112.759   0.306 F   0
   12   14   13   109.500 111.502   0.305 F   0
   12   17   11   109.500 106.600   0.253 F   0
   12   17   13   109.500 107.860   0.252 F   0
   12   17   14   109.500 108.066   0.251 F   0
   13   15   12   120.000 120.368   0.179 F   0
   13   20   12   120.000 115.829   0.243 F   0
   13   20   15   120.000 123.793   0.176 F   0
   14   18   12   109.500 109.633   0.217 F   0
   14   19   12   109.500 108.828   0.217 F   0
   14   19   18   108.600 105.771   0.180 F   0
   20   21   13   115.000 120.871   0.408 F   0
   20   25   13   115.000 120.952   0.334 F   0
   20   25   21   104.000 117.529   0.181 F   0
   21   22   20   109.500 108.894   0.307 F   0
   21   23   20   109.500 112.133   0.305 F   0
   21   23   22   109.500 110.876   0.305 F   0
   21   26   20   109.500 106.410   0.253 F   0
   21   26   22   109.500 108.647   0.252 F   0
   21   26   23   109.500 109.727   0.251 F   0
   22   24   21   120.000 119.628   0.179 F   0
   22   30   21   120.000 116.818   0.243 F   0
   22   30   24   120.000 123.547   0.176 F   0
   23   27   21   109.500 111.254   0.250 F   0
   23   28   21   109.500 111.456   0.250 F   0
   23   28   27   108.600 108.459   0.208 F   0
   23   29   21   109.500 109.882   0.250 F   0
   23   29   27   108.600 107.599   0.208 F   0
   23   29   28   108.600 108.056   0.208 F   0
   30   31   22   115.000 120.827   0.408 F   0
   30   35   22   115.000 121.967   0.333 F   0
   30   35   31   104.000 117.033   0.181 F   0
   31   32   30   109.500 108.783   0.307 F   0
   31   33   30   109.500 112.584   0.305 F   0
   31   33   32   109.500 110.932   0.305 F   0
   31   36   30   109.500 106.191   0.253 F   0
   31   36   32   109.500 108.284   0.252 F   0
   31   36   33   109.500 109.873   0.251 F   0
   32   34   31   120.000 118.774   0.178 F   0
   32   40   31   120.000 117.769   0.242 F   0
   32   40   34   120.000 123.456   0.176 F   0
   33   37   31   109.500 109.914   0.250 F   0
   33   38   31   109.500 111.381   0.250 F   0
   33   38   37   108.600 107.619   0.208 F   0
   33   39   31   109.500 111.291   0.250 F   0
   33   39   37   108.600 108.036   0.208 F   0
   33   39   38   108.600 108.467   0.208 F   0
   40   41   32   115.000 120.514   0.407 F   0
   40   47   32   115.000 120.580   0.332 F   0
   40   47   41   104.000 115.483   0.181 F   0
   41   42   40   109.500 108.098   0.306 F   0
   41   43   40   109.500 113.695   0.306 F   0
   41   43   42   109.500 113.339   0.305 F   0
   41   48   40   109.500 105.599   0.253 F   0
   41   48   42   109.500 107.456   0.252 F   0
   41   48   43   109.500 108.199   0.251 F   0
   42   44   41   120.000 119.277   0.179 F   0
   42   56   41   120.000 119.468   0.244 F   0
   42   56   44   120.000 121.139   0.178 F   0
   43   45   41   109.500 110.262   0.304 F   0
   43   46   41   109.500 112.204   0.304 F   0
   43   46   45   109.500 111.327   0.304 F   0
   43   49   41   109.500 106.863   0.251 F   0
   43   49   45   109.500 108.368   0.251 F   0
   43   49   46   109.500 107.606   0.251 F   0
   45   50   43   109.500 110.616   0.251 F   0
   45   51   43   109.500 111.522   0.251 F   0
   45   51   50   108.600 107.681   0.208 F   0
   45   52   43   109.500 111.495   0.251 F   0
   45   52   50   108.600 107.316   0.208 F   0
   45   52   51   108.600 108.026   0.208 F   0
   46   53   43   109.500 111.216   0.251 F   0
   46   54   43   109.500 111.228   0.251 F   0
   46   54   53   108.600 107.438   0.208 F   0
   46   55   43   109.500 111.454   0.251 F   0
   46   55   53   108.600 107.272   0.208 F   0
   46   55   54   108.600 108.038   0.208 F   0
   56   57   42   115.000 118.543   0.411 F   0
   56   60   42   115.000 119.498   0.336 F   0
   56   60   57   104.000 113.167   0.182 F   0
   57   58   56   109.500 114.937   0.307 F   0
   57   61   56   109.500 107.013   0.253 F   0
   57   61   58   109.500 110.023   0.251 F   0
   57   62   56   109.500 108.937   0.253 F   0
   57   62   58   109.500 109.687   0.251 F   0
   57   62   61   108.600 105.826   0.209 F   0
   58   59   57   120.000 121.032   0.177 F   0
   58   63   57   120.000 115.701   0.241 F   0
   58   63   59   120.000 123.249   0.174 F   0
   63   64   58   113.000 119.916   0.042 F   0
   63   65   58   113.000 121.939   0.212 F   0
   63   65   64   113.000 116.050   0.105 F   0
   64   66   63   120.000 109.167   0.204 F   0
   64   67   63   120.000 107.573   0.204 F   0
   64   67   66   120.000 107.585   0.167 F   0
 torsion atoms        nrot   rings    phi0    phi      FC
    4    3    7    5   2      5       0.000   0.085   0.693
    4    3    9    5   2      5       0.000 179.207   1.145
    5    3    6    4   2      5       0.000   0.117   0.329
    5    3    8    4   2      5       0.000 179.509   0.469
    6    5    7    3   2      5       0.000   0.116   0.662
    6    5    7    8   2      5       0.000 179.507   0.891
    6    5   10    3   2      5       0.000 179.917   1.094
    6    5   10    8   2      5       0.000   0.293   1.473
    7    4    6    3   2      5       0.000   0.015   0.696
    7    4    6    9   2      5       0.000 179.156   0.937
    7    6    4    5   2      5       0.000   0.063   0.446
    7    6    4   10   2      5       0.000 179.867   0.780
   11    1   12    2   2      0     180.000   9.587   0.626
   11    1   16    2   2      0     180.000 173.918   0.929
   12   11   13    1   3      0     180.000  70.266   0.024
   12   11   13   16   3      0     180.000  94.864   0.032
   12   11   14    1   3      0     180.000 164.739   0.024
   12   11   14   16   3      0     180.000  30.130   0.032
   12   11   17    1   3      0     180.000  46.315   0.034
   12   11   17   16   3      0     180.000 148.554   0.045
   13   12   15   11   3      0     180.000  90.412   0.067
   13   12   15   14   3      0     180.000  35.303   0.082
   13   12   15   17   3      0     180.000 153.801   0.117
   13   12   20   11   3      0     180.000  88.432   0.042
   13   12   20   14   3      0     180.000 145.853   0.051
   13   12   20   17   3      0     180.000  27.355   0.073
   14   12   18   11   3      0     180.000  43.108   0.117
   14   12   18   13   3      0     180.000  80.955   0.143
   14   12   18   17   3      0     180.000 160.671   0.204
   14   12   19   11   3      0     180.000 158.355   0.117
   14   12   19   13   3      0     180.000  34.292   0.143
   14   12   19   17   3      0     180.000  84.082   0.204
   20   13   21   12   2      0     180.000 177.981   0.611
   20   13   21   15   2      0     180.000   3.219   0.828
   20   13   25   12   2      0     180.000  11.471   0.907
   20   13   25   15   2      0     180.000 167.328   1.229
   21   20   22   13   3      0     180.000  63.208   0.023
   21   20   22   25   3      0     180.000 125.931   0.033
   21   20   23   13   3      0     180.000 173.712   0.022
   21   20   23   25   3      0     180.000   2.850   0.032
   21   20   26   13   3      0     180.000  53.735   0.033
   21   20   26   25   3      0     180.000 117.126   0.047
   22   21   24   20   3      0     180.000  64.617   0.068
   22   21   24   23   3      0     180.000  59.213   0.080
   22   21   24   26   3      0     180.000 179.875   0.118
   22   21   30   20   3      0     180.000 114.465   0.042
   22   21   30   23   3      0     180.000 121.705   0.050
   22   21   30   26   3      0     180.000   1.044   0.074
   23   21   27   20   3      0     180.000 178.214   0.120
   23   21   27   22   3      0     180.000  59.830   0.148
   23   21   27   26   3      0     180.000  60.190   0.210
   23   21   28   20   3      0     180.000  57.023   0.120
   23   21   28   22   3      0     180.000 178.979   0.148
   23   21   28   26   3      0     180.000  61.002   0.210
   23   21   29   20   3      0     180.000  62.731   0.120
   23   21   29   22   3      0     180.000  59.225   0.148
   23   21   29   26   3      0     180.000 179.245   0.210
   30   22   31   21   2      0     180.000 177.765   0.620
   30   22   31   24   2      0     180.000   3.193   0.840
   30   22   35   21   2      0     180.000   2.672   0.919
   30   22   35   24   2      0     180.000 178.286   1.246
   31   30   32   22   3      0     180.000  62.217   0.023
   31   30   32   35   3      0     180.000 113.111   0.033
   31   30   33   22   3      0     180.000 174.406   0.022
   31   30   33   35   3      0     180.000  10.266   0.031
   31   30   36   22   3      0     180.000  54.131   0.033
   31   30   36   35   3      0     180.000 130.541   0.047
   32   31   34   30   3      0     180.000  61.414   0.068
   32   31   34   33   3      0     180.000  62.946   0.080
   32   31   34   36   3      0     180.000 176.411   0.118
   32   31   40   30   3      0     180.000 118.847   0.042
   32   31   40   33   3      0     180.000 116.793   0.050
   32   31   40   36   3      0     180.000   3.850   0.074
   33   31   37   30   3      0     180.000  62.556   0.120
   33   31   37   32   3      0     180.000  59.616   0.147
   33   31   37   36   3      0     180.000 179.313   0.210
   33   31   38   30   3      0     180.000 178.263   0.120
   33   31   38   32   3      0     180.000  59.565   0.147
   33   31   38   36   3      0     180.000  60.133   0.210
   33   31   39   30   3      0     180.000  57.088   0.120
   33   31   39   32   3      0     180.000 179.260   0.147
   33   31   39   36   3      0     180.000  61.042   0.210
   40   32   41   31   2      0     180.000 169.674   0.645
   40   32   41   34   2      0     180.000  10.052   0.874
   40   32   47   31   2      0     180.000  11.494   0.956
   40   32   47   34   2      0     180.000 168.232   1.296
   41   40   42   32   3      0     180.000  58.250   0.023
   41   40   42   47   3      0     180.000 100.988   0.033
   41   40   43   32   3      0     180.000 174.981   0.022
   41   40   43   47   3      0     180.000  25.781   0.031
   41   40   48   32   3      0     180.000  56.515   0.033
   41   40   48   47   3      0     180.000 144.247   0.046
   42   41   44   40   3      0     180.000  62.917   0.066
   42   41   44   43   3      0     180.000  64.058   0.078
   42   41   44   48   3      0     180.000 176.453   0.116
   42   41   56   40   3      0     180.000 113.210   0.041
   42   41   56   43   3      0     180.000 119.815   0.049
   42   41   56   48   3      0     180.000   0.326   0.072
   43   41   45   40   3      0     180.000  61.405   0.075
   43   41   45   40   1      0     180.000  61.405  -0.068
   43   41   45   42   3      0     180.000 174.620   0.093
   43   41   45   48   3      0     180.000  55.557   0.132
   43   41   46   40   3      0     180.000  63.305   0.075
   43   41   46   40   1      0     180.000  63.305  -0.068
   43   41   46   42   3      0     180.000  60.671   0.093
   43   41   46   48   3      0     180.000 179.733   0.132
   43   41   49   40   3      0     180.000 178.979   0.112
   43   41   49   42   3      0     180.000  57.046   0.137
   43   41   49   48   3      0     180.000  62.017   0.196
   45   43   50   41   3      0     180.000  61.357   0.139
   45   43   50   46   3      0     180.000  63.853   0.139
   45   43   50   49   3      0     180.000 177.997   0.206
   45   43   51   41   3      0     180.000 178.830   0.139
   45   43   51   46   3      0     180.000  55.960   0.139
   45   43   51   49   3      0     180.000  62.190   0.206
   45   43   52   41   3      0     180.000  57.979   0.139
   45   43   52   46   3      0     180.000 176.811   0.139
   45   43   52   49   3      0     180.000  58.661   0.206
   46   43   53   41   3      0     180.000  65.904   0.139
   46   43   53   45   3      0     180.000  58.214   0.139
   46   43   53   49   3      0     180.000 176.822   0.206
   46   43   54   41   3      0     180.000  53.808   0.139
   46   43   54   45   3      0     180.000 177.927   0.139
   46   43   54   49   3      0     180.000  63.466   0.206
   46   43   55   41   3      0     180.000 174.443   0.139
   46   43   55   45   3      0     180.000  61.439   0.139
   46   43   55   49   3      0     180.000  57.169   0.206
   56   42   57   41   2      0     180.000 148.641   0.560
   56   42   57   44   2      0     180.000  27.412   0.759
   56   42   60   41   2      0     180.000   3.329   0.831
   56   42   60   44   2      0     180.000 172.724   1.126
   57   56   58   42   3      0     180.000 128.716   0.022
   57   56   58   60   3      0     180.000  83.885   0.032
   57   56   61   42   3      0     180.000   6.226   0.032
   57   56   61   60   3      0     180.000 153.625   0.045
   57   56   62   42   3      0     180.000 107.759   0.032
   57   56   62   60   3      0     180.000  39.640   0.045
   58   57   59   56   3      0     180.000  74.115   0.066
   58   57   59   61   3      0     180.000 165.029   0.115
   58   57   59   62   3      0     180.000  49.010   0.115
   58   57   63   56   3      0     180.000 107.396   0.041
   58   57   63   61   3      0     180.000  13.460   0.072
   58   57   63   62   3      0     180.000 129.479   0.072
   63   58   64   57   2      0     180.000 178.253   0.338
   63   58   64   59   2      0     180.000   0.198   0.458
   63   58   65   57   2      0     180.000  18.856   0.481
   63   58   65   59   2      0     180.000 162.692   0.652
   64   63   66   58   2      0     180.000 120.130   1.381
   64   63   66   65   2      0     180.000  76.004   1.969
   64   63   67   58   2      0     180.000   3.669   1.381
   64   63   67   65   2      0     180.000 167.535   1.969
 out-of-plane atoms          phi0    phi      FC
    4    9    7    3          0.000   0.806   0.611
    5    8    3    6          0.000  -0.360   0.429
    6   10    7    5          0.000   0.182   0.573
   11   16    1   12          0.000 -13.443   0.353
   13   15   20   12          0.000   1.080  23.245
   20   25   13   21          0.000   8.104   0.087
   22   24   30   21          0.000   0.855  23.360
   30   35   22   31          0.000  -4.212   0.064
   32   34   40   31          0.000  -0.242  23.771
   40   47   32   41          0.000 -18.676  -0.002
   42   44   56   41          0.000   3.436  22.127
   56   60   42   57          0.000  29.996   0.220
   58   59   63   57          0.000  -1.395  28.282
   63   65   58   64          0.000  14.773  -0.043
   64   66   67   63          0.000  57.744   0.554
          #tors  :   166
          #nmol  :   7
          #optfrag :   7

 GFN-FF setup done.

           ------------------------------------------------- 
          |                   G F N - F F                   |
          |          A general generic force-field          |
          |                  Version 1.0.3                  | 
           ------------------------------------------------- 
      * Solvation model:               ALPB
        Solvent                        water
        Parameter file                 internal GFN-FF/ALPB
        Dielectric constant                8.0200E+01
        Reference state                gsolv [1 M gas/solution]
        Free energy shift                  3.6494E-04 Eh       2.2900E-01 kcal/mol
        Temperature                        2.9815E+02 K
        Density                            1.0000E+00 kg/L
        Solvent mass                       1.8000E+01 g/mol
        Interaction kernel             P16
        Born radius scaling (c1)           1.5056E+00
        Born radii integrator          GBOBC
        Born offset                        0.0000E+00 a0       0.0000E+00 AA
        H-bond correction              true
        Ion screening                  false
        Surface tension                    1.0000E-05 Eh       1.5569E+01 dyn/cm
        Grid points                               230 per atom
          Number of HB bonds (bound hydrogen)     1332
          Number of HB bonds (unbound hydrogen)   118
          Number of XB bonds                      0

 E+G (total)                   0 d,  0 h,  0 min,  0.002 sec
 distance/D3 list               ...        0 min,  0.000 sec (  0.956%)
 non bonded repulsion           ...        0 min,  0.000 sec (  2.227%)
 dCN                            ...        0 min,  0.000 sec (  5.916%)
 EEQ energy and q               ...        0 min,  0.000 sec (  5.619%)
 D3                             ...        0 min,  0.000 sec (  9.059%)
 EEQ gradient                   ...        0 min,  0.000 sec (  4.436%)
 bonds                          ...        0 min,  0.000 sec (  0.716%)
 bend and torsion               ...        0 min,  0.000 sec (  2.740%)
 bonded ATM                     ...        0 min,  0.000 sec (  1.169%)
 HB/XB (incl list setup)        ...        0 min,  0.000 sec ( 10.233%)
 GBSA                           ...        0 min,  0.001 sec ( 59.856%)

         :::::::::::::::::::::::::::::::::::::::::::::::::::::
         ::                     SUMMARY                     ::
         :::::::::::::::::::::::::::::::::::::::::::::::::::::
         :: total energy             -11.717888157743 Eh    ::
         :: total w/o Gsolv          -11.658669836043 Eh    ::
         :: total w/o Gsasa/hb       -11.705227837313 Eh    ::
         :: gradient norm              0.171578593058 Eh/a0 ::
         ::.................................................::
         :: bond energy              -11.928990857821 Eh    ::
         :: angle energy               0.053468488940 Eh    ::
         :: torsion energy             0.022335300362 Eh    ::
         :: repulsion energy           0.752504607179 Eh    ::
         :: electrostat energy        -0.476735241818 Eh    ::
         :: dispersion energy         -0.056668335171 Eh    ::
         :: HB energy                 -0.004108767716 Eh    ::
         :: XB energy                  0.000000000000 Eh    ::
         :: bonded atm energy         -0.020475029999 Eh    ::
         :: external energy            0.000000000000 Eh    ::
         :: -> Gsolv                  -0.059218321700 Eh    ::
         ::    -> Gborn               -0.046558001270 Eh    ::
         ::    -> Gsasa                0.003596855266 Eh    ::
         ::    -> Ghb                 -0.016622114952 Eh    ::
         ::    -> Gshift               0.000364939255 Eh    ::
         :: add. restraining           0.000000000000 Eh    ::
         :: total charge              -0.000000000000 e     ::
         ::.................................................::
         :: atomisation energy         0.000000000000 Eh    ::
         :::::::::::::::::::::::::::::::::::::::::::::::::::::

      ----------------------------------------------------------- 
     |                   =====================                   |
     |                        A N C O P T                        |
     |                   =====================                   |
     |               Approximate Normal Coordinate               |
     |                Rational Function Optimizer                |
      ----------------------------------------------------------- 

          ...................................................
          :                      SETUP                      :
          :.................................................:
          :   optimization level         verytight          :
          :   max. optcycles                    10          :
          :   ANC micro-cycles                  10          :
          :   degrees of freedom               195          :
          :.................................................:
          :   RF solver                   davidson          :
          :   write xtbopt.log                true          :
          :   linear?                        false          :
          :   energy convergence         0.1000000E-06 Eh   :
          :   grad. convergence          0.2000000E-03 Eh/α :
          :   maxmium RF displ.          1.0000000          :
          :   Hlow (freq-cutoff)         0.1000000E-01      :
          :   Hmax (freq-cutoff)         5.0000000          :
          :   S6 in model hess.         20.0000000          :
          ...................................................

generating ANC from model Hessian ...
Using GFN-FF Lindh-Hessian
 Shifting diagonal of input Hessian by    4.4849754219340758E-003
 Lowest  eigenvalues of input Hessian
    0.000000    0.000000    0.000000    0.000000    0.000000    0.000000
    0.010000    0.013077    0.018719    0.038327    0.045678    0.054965
    0.059794    0.085219    0.094791    0.098869    0.106017    0.117848
 Highest eigenvalues
    3.660385    3.756127    3.841743    3.867689    4.266227    4.363393


........................................................................
.............................. CYCLE    1 ..............................
........................................................................
     iter. time                 ...        0 min,  0.002 sec
 * total energy  :   -11.7178882 Eh     change        0.0000000E+00 Eh
   gradient norm :     0.1715786 Eh/α   predicted     0.0000000E+00 (    NaN%)
   displ. norm   :     0.1062197 α      lambda       -0.1221473E-01
   maximum displ.:     0.0442885 α      in ANC's #93, #28, #10, ...

........................................................................
.............................. CYCLE    2 ..............................
........................................................................
     iter. time                 ...        0 min,  0.001 sec
 * total energy  :   -11.7263236 Eh     change       -0.8435462E-02 Eh
   gradient norm :     0.0646071 Eh/α   predicted    -0.6191116E-02 ( -26.61%)
   displ. norm   :     0.0794548 α      lambda       -0.3635363E-02
   maximum displ.:     0.0389469 α      in ANC's #93, #87, #10, ...

........................................................................
.............................. CYCLE    3 ..............................
........................................................................
     iter. time                 ...        0 min,  0.002 sec
 * total energy  :   -11.7283694 Eh     change       -0.2045787E-02 Eh
   gradient norm :     0.0173795 Eh/α   predicted    -0.1829469E-02 ( -10.57%)
   displ. norm   :     0.0235229 α      lambda       -0.2930160E-03
   maximum displ.:     0.0128949 α      in ANC's #59, #93, #87, ...

........................................................................
.............................. CYCLE    4 ..............................
........................................................................
     iter. time                 ...        0 min,  0.001 sec
 * total energy  :   -11.7285741 Eh     change       -0.2046871E-03 Eh
   gradient norm :     0.0097160 Eh/α   predicted    -0.1466143E-03 ( -28.37%)
   displ. norm   :     0.0198967 α      lambda       -0.1257067E-03
   maximum displ.:     0.0133378 α      in ANC's #59, #87, #93, ...

........................................................................
.............................. CYCLE    5 ..............................
........................................................................
     iter. time                 ...        0 min,  0.001 sec
 * total energy  :   -11.7286471 Eh     change       -0.7301026E-04 Eh
   gradient norm :     0.0038086 Eh/α   predicted    -0.6295431E-04 ( -13.77%)
   displ. norm   :     0.0061605 α      lambda       -0.1468081E-04
   maximum displ.:     0.0041539 α      in ANC's #59, #21, #154, ...

........................................................................
.............................. CYCLE    6 ..............................
........................................................................
     iter. time                 ...        0 min,  0.001 sec
 * total energy  :   -11.7286577 Eh     change       -0.1061165E-04 Eh
   gradient norm :     0.0027956 Eh/α   predicted    -0.7344793E-05 ( -30.79%)
   displ. norm   :     0.0059636 α      lambda       -0.1061446E-04
   maximum displ.:     0.0033052 α      in ANC's #59, #154, #93, ...

........................................................................
.............................. CYCLE    7 ..............................
........................................................................
     iter. time                 ...        0 min,  0.001 sec
 * total energy  :   -11.7286648 Eh     change       -0.7082192E-05 Eh
   gradient norm :     0.0021351 Eh/α   predicted    -0.5319447E-05 ( -24.89%)
   displ. norm   :     0.0038417 α      lambda       -0.4976173E-05
   maximum displ.:     0.0020534 α      in ANC's #154, #59, #78, ...

........................................................................
.............................. CYCLE    8 ..............................
........................................................................
     iter. time                 ...        0 min,  0.001 sec
 * total energy  :   -11.7286686 Eh     change       -0.3824285E-05 Eh
   gradient norm :     0.0018167 Eh/α   predicted    -0.2521579E-05 ( -34.06%)
   displ. norm   :     0.0080631 α      lambda       -0.6310142E-05
   maximum displ.:     0.0049961 α      in ANC's #154, #78, #56, ...

........................................................................
.............................. CYCLE    9 ..............................
........................................................................
     iter. time                 ...        0 min,  0.001 sec
 * total energy  :   -11.7286739 Eh     change       -0.5308386E-05 Eh
   gradient norm :     0.0019926 Eh/α   predicted    -0.3172534E-05 ( -40.24%)
   displ. norm   :     0.0036308 α      lambda       -0.2847763E-05
   maximum displ.:     0.0018633 α      in ANC's #154, #59, #78, ...

........................................................................
.............................. CYCLE   10 ..............................
........................................................................
     iter. time                 ...        0 min,  0.001 sec
 * total energy  :   -11.7286771 Eh     change       -0.3182853E-05 Eh
   gradient norm :     0.0011912 Eh/α   predicted    -0.1432006E-05 ( -55.01%)
   displ. norm   :     0.0036830 α      lambda       -0.1730905E-05
   maximum displ.:     0.0019424 α      in ANC's #154, #59, #42, ...

   *** FAILED TO CONVERGE GEOMETRY OPTIMIZATION IN 10 ITERATIONS ***


 ANCopt (total)                0 d,  0 h,  0 min,  0.020 sec
 optimizer setup                ...        0 min,  0.000 sec (  0.699%)
 model hessian                  ...        0 min,  0.001 sec (  3.330%)
 ANC generation                 ...        0 min,  0.002 sec ( 11.875%)
 coordinate transformation      ...        0 min,  0.000 sec (  0.407%)
 single point calculation       ...        0 min,  0.015 sec ( 76.302%)
 optimization log               ...        0 min,  0.001 sec (  4.095%)
 hessian update                 ...        0 min,  0.000 sec (  0.575%)
 rational function              ...        0 min,  0.000 sec (  1.723%)

================
 final structure:
================
ATOM      1  C   HIS A   4     -15.906 -16.166  13.227  1.00  0.00           C  
ATOM      2  O   HIS A   4     -16.444 -15.863  12.182  1.00  0.00           O  
ATOM      3  CG  HIS A   4     -15.233 -18.987  12.118  1.00  0.00           C  
ATOM      4  CD2 HIS A   4     -14.370 -18.162  11.453  1.00  0.00           C  
ATOM      5  ND1 HIS A   4     -14.738 -20.258  11.971  1.00  0.00           N  
ATOM      6  CE1 HIS A   4     -13.606 -20.139  11.226  1.00  0.00           C  
ATOM      7  NE2 HIS A   4     -13.365 -18.872  10.913  1.00  0.00           N  
ATOM      8  HD1 HIS A   4     -15.180 -21.111  12.329  1.00  0.00           H  
ATOM      9  HD2 HIS A   4     -14.440 -17.084  11.380  1.00  0.00           H  
ATOM     10  HE1 HIS A   4     -12.964 -20.957  10.931  1.00  0.00           H  
ATOM     11  N   HIS A   5     -14.950 -15.441  13.848  1.00  0.00           N  
ATOM     12  CA  HIS A   5     -14.360 -14.280  13.199  1.00  0.00           C  
ATOM     13  C   HIS A   5     -13.492 -14.738  12.055  1.00  0.00           C  
ATOM     14  CB  HIS A   5     -13.596 -13.383  14.157  1.00  0.00           C  
ATOM     15  O   HIS A   5     -12.313 -14.959  12.237  1.00  0.00           O  
ATOM     16  H   HIS A   5     -14.445 -15.791  14.666  1.00  0.00           H  
ATOM     17  HA  HIS A   5     -15.203 -13.713  12.769  1.00  0.00           H  
ATOM     18  HB2 HIS A   5     -13.009 -13.972  14.841  1.00  0.00           H  
ATOM     19  HB3 HIS A   5     -12.902 -12.768  13.590  1.00  0.00           H  
ATOM     20  N   ALA A   6     -14.121 -14.901  10.844  1.00  0.00           N  
ATOM     21  CA  ALA A   6     -13.375 -15.289   9.660  1.00  0.00           C  
ATOM     22  C   ALA A   6     -12.373 -14.211   9.343  1.00  0.00           C  
ATOM     23  CB  ALA A   6     -14.280 -15.557   8.472  1.00  0.00           C  
ATOM     24  O   ALA A   6     -12.764 -13.110   9.019  1.00  0.00           O  
ATOM     25  H   ALA A   6     -15.146 -14.888  10.775  1.00  0.00           H  
ATOM     26  HA  ALA A   6     -12.826 -16.206   9.927  1.00  0.00           H  
ATOM     27  HB1 ALA A   6     -13.706 -15.878   7.602  1.00  0.00           H  
ATOM     28  HB2 ALA A   6     -15.020 -16.324   8.700  1.00  0.00           H  
ATOM     29  HB3 ALA A   6     -14.811 -14.645   8.199  1.00  0.00           H  
ATOM     30  N   ALA A   7     -11.046 -14.543   9.456  1.00  0.00           N  
ATOM     31  CA  ALA A   7     -10.012 -13.587   9.122  1.00  0.00           C  
ATOM     32  C   ALA A   7     -10.132 -13.231   7.656  1.00  0.00           C  
ATOM     33  CB  ALA A   7      -8.621 -14.100   9.444  1.00  0.00           C  
ATOM     34  O   ALA A   7      -9.999 -14.108   6.829  1.00  0.00           O  
ATOM     35  H   ALA A   7     -10.744 -15.486   9.705  1.00  0.00           H  
ATOM     36  HA  ALA A   7     -10.225 -12.685   9.717  1.00  0.00           H  
ATOM     37  HB1 ALA A   7      -8.405 -14.986   8.847  1.00  0.00           H  
ATOM     38  HB2 ALA A   7      -7.860 -13.354   9.213  1.00  0.00           H  
ATOM     39  HB3 ALA A   7      -8.531 -14.371  10.496  1.00  0.00           H  
ATOM     40  N   VAL A   8     -10.383 -11.915   7.334  1.00  0.00           N  
ATOM     41  CA  VAL A   8     -10.289 -11.465   5.955  1.00  0.00           C  
ATOM     42  C   VAL A   8      -8.881 -11.750   5.461  1.00  0.00           C  
ATOM     43  CB  VAL A   8     -10.719  -9.996   5.758  1.00  0.00           C  
ATOM     44  O   VAL A   8      -7.939 -11.201   5.995  1.00  0.00           O  
ATOM     45  CG1 VAL A   8     -12.183  -9.815   6.157  1.00  0.00           C  
ATOM     46  CG2 VAL A   8      -9.814  -9.021   6.510  1.00  0.00           C  
ATOM     47  H   VAL A   8     -10.311 -11.185   8.042  1.00  0.00           H  
ATOM     48  HA  VAL A   8     -10.980 -12.105   5.386  1.00  0.00           H  
ATOM     49  HB  VAL A   8     -10.622  -9.778   4.680  1.00  0.00           H  
ATOM     50 HG11 VAL A   8     -12.327 -10.056   7.209  1.00  0.00           H  
ATOM     51 HG12 VAL A   8     -12.515  -8.788   6.004  1.00  0.00           H  
ATOM     52 HG13 VAL A   8     -12.837 -10.470   5.581  1.00  0.00           H  
ATOM     53 HG21 VAL A   8      -9.907  -9.148   7.587  1.00  0.00           H  
ATOM     54 HG22 VAL A   8      -8.766  -9.176   6.252  1.00  0.00           H  
ATOM     55 HG23 VAL A   8     -10.068  -7.985   6.283  1.00  0.00           H  
ATOM     56  N   GLY A   9      -8.690 -12.696   4.460  1.00  0.00           N  
ATOM     57  CA  GLY A   9      -7.453 -13.465   4.458  1.00  0.00           C  
ATOM     58  C   GLY A   9      -6.746 -13.470   3.156  1.00  0.00           C  
ATOM     59  O   GLY A   9      -7.140 -14.128   2.228  1.00  0.00           O  
ATOM     60  H   GLY A   9      -9.490 -13.223   4.105  1.00  0.00           H  
ATOM     61  HA2 GLY A   9      -6.812 -13.043   5.239  1.00  0.00           H  
ATOM     62  HA3 GLY A   9      -7.670 -14.495   4.763  1.00  0.00           H  
ATOM     63  N   GLY A  10      -5.595 -12.697   3.082  1.00  0.00           N  
ATOM     64  CA  GLY A  10      -4.785 -12.749   1.974  1.00  0.00           C  
ATOM     65  H   GLY A  10      -5.389 -12.001   3.805  1.00  0.00           H  
ATOM     66  HA2 GLY A  10      -3.780 -13.045   2.186  1.00  0.00           H  
ATOM     67  HA3 GLY A  10      -5.246 -13.380   1.226  1.00  0.00           H  
END

 Bond Distances (Angstroems)
 ---------------------------
C1-O2=1.2137         C1-N11=1.3513        O2-C1=1.2137         C3-C4=1.3668         C3-N5=1.3718         C4-C3=1.3668         
C4-N7=1.3440         C4-H9=1.0824         N5-C3=1.3718         N5-C6=1.3603         N5-H8=1.0248         C6-N5=1.3603         
C6-N7=1.3275         C6-H10=1.0808        N7-C4=1.3440         N7-C6=1.3275         H8-N5=1.0248         H9-C4=1.0824         
H10-C6=1.0808        N11-C1=1.3513        N11-C12=1.4545       N11-H16=1.0233       C12-N11=1.4545       C12-C13=1.5065       
C12-C14=1.5189       C12-H17=1.1033       C13-C12=1.5065       C13-O15=1.2136       C13-N20=1.3741       C14-C12=1.5189       
C14-H18=1.0763       C14-H19=1.0870       O15-C13=1.2136       H16-N11=1.0233       H17-C12=1.1033       H18-C14=1.0763       
H19-C14=1.0870       N20-C13=1.3741       N20-C21=1.4525       N20-H25=1.0278       C21-N20=1.4525       C21-C22=1.5053       
C21-C23=1.5172       C21-H26=1.1015       C22-C21=1.5053       C22-O24=1.2130       C22-N30=1.3727       C23-C21=1.5172       
C23-H27=1.0906       C23-H28=1.0905       C23-H29=1.0898       O24-C22=1.2130       H25-N20=1.0278       H26-C21=1.1015       
H27-C23=1.0906       H28-C23=1.0905       H29-C23=1.0898       N30-C22=1.3727       N30-C31=1.4480       N30-H35=1.0209       
C31-N30=1.4480       C31-C32=1.5132       C31-C33=1.5173       C31-H36=1.1013       C32-C31=1.5132       C32-O34=1.2132       
C32-N40=1.3777       C33-C31=1.5173       C33-H37=1.0896       C33-H38=1.0905       C33-H39=1.0902       O34-C32=1.2132       
H35-N30=1.0209       H36-C31=1.1013       H37-C33=1.0896       H38-C33=1.0905       H39-C33=1.0902       N40-C32=1.3777       
N40-C41=1.4534       N40-H47=1.0194       C41-N40=1.4534       C41-C42=1.5184       C41-C43=1.5437       C41-H48=1.1002       
C42-C41=1.5184       C42-O44=1.2144       C42-N56=1.3907       C43-C41=1.5437       C43-C45=1.5278       C43-C46=1.5276       
C43-H49=1.1043       O44-C42=1.2144       C45-C43=1.5278       C45-H50=1.0896       C45-H51=1.0902       C45-H52=1.0902       
C46-C43=1.5276       C46-H53=1.0885       C46-H54=1.0905       C46-H55=1.0905       H47-N40=1.0194       H48-C41=1.1002       
H49-C43=1.1043       H50-C45=1.0896       H51-C45=1.0902       H52-C45=1.0902       H53-C46=1.0885       H54-C46=1.0905       
H55-C46=1.0905       N56-C42=1.3907       N56-C57=1.4562       N56-H60=1.0216       C57-N56=1.4562       C57-C58=1.4818       
C57-H61=1.0950       C57-H62=1.0962       C58-C57=1.4818       C58-O59=1.2041       C58-N63=1.3894       O59-C58=1.2041       
H60-N56=1.0216       H61-C57=1.0950       H62-C57=1.0962       N63-C58=1.3894       N63-C64=1.3733       N63-H65=1.0239       
C64-N63=1.3733       C64-H66=1.0695       C64-H67=1.0818       H65-N63=1.0239       H66-C64=1.0695       H67-C64=1.0818       
 C  H  Rav=1.0904 sigma=0.0081  Rmin=1.0695  Rmax=1.1043    25
 C  C  Rav=1.5037 sigma=0.0437  Rmin=1.3668  Rmax=1.5437    12
 N  H  Rav=1.0231 sigma=0.0026  Rmin=1.0194  Rmax=1.0278     7
 N  C  Rav=1.3936 sigma=0.0428  Rmin=1.3275  Rmax=1.4562    16
 O  C  Rav=1.2120 sigma=0.0036  Rmin=1.2041  Rmax=1.2144     6

 selected bond angles (degree)
 --------------------
N11-C1-O2=125.11               N5-C3-C4=106.23                N7-C4-C3=110.41                H9-C4-C3=126.39                
H9-C4-N7=123.17                C6-N5-C3=106.13                H8-N5-C3=125.33                H8-N5-C6=128.48                
N7-C6-N5=111.35                H10-C6-N5=125.29               H10-C6-N7=123.36               C6-N7-C4=105.87                

 selected dihedral angles (degree)
 ---------------------------------
N7-C4-C3-N5=359.64            H9-C4-C3-N5=181.43            C6-N5-C3-C4=359.90            H8-N5-C3-C4=182.31            
N7-C6-N5-C3=  0.53            N7-C6-N5-H8=178.02            H10-C6-N5-C3=179.59           H10-C6-N5-H8=357.08           
C6-N7-C4-C3=  0.67            C6-N7-C4-H9=178.95            C4-N7-C6-N5=359.26            C4-N7-C6-H10=180.18           

 CMA Distance (Angstroems)
 ---------------------------
R(CMA):  7.6111
           -------------------------------------------------
          |                Final Singlepoint                |
           -------------------------------------------------
         :::::::::::::::::::::::::::::::::::::::::::::::::::::
         ::                     SUMMARY                     ::
         :::::::::::::::::::::::::::::::::::::::::::::::::::::
         :: total energy             -11.728678554488 Eh    ::
         :: total w/o Gsolv          -11.669520423387 Eh    ::
         :: total w/o Gsasa/hb       -11.716112789954 Eh    ::
         :: gradient norm              0.000385238652 Eh/a0 ::
         ::.................................................::
         :: bond energy              -11.949245837141 Eh    ::
         :: angle energy               0.049688298983 Eh    ::
         :: torsion energy             0.022448887329 Eh    ::
         :: repulsion energy           0.759606537918 Eh    ::
         :: electrostat energy        -0.476665176705 Eh    ::
         :: dispersion energy         -0.056669237599 Eh    ::
         :: HB energy                 -0.004145391655 Eh    ::
         :: XB energy                  0.000000000000 Eh    ::
         :: bonded atm energy         -0.020560977589 Eh    ::
         :: external energy            0.000000000000 Eh    ::
         :: -> Gsolv                  -0.059158131101 Eh    ::
         ::    -> Gborn               -0.046592366567 Eh    ::
         ::    -> Gsasa                0.003636786822 Eh    ::
         ::    -> Ghb                 -0.016567490612 Eh    ::
         ::    -> Gshift               0.000364939255 Eh    ::
         :: add. restraining           0.006022473072 Eh    ::
         :: total charge              -0.000000000000 e     ::
         ::.................................................::
         :: atomisation energy         0.000000000000 Eh    ::
         :::::::::::::::::::::::::::::::::::::::::::::::::::::

           -------------------------------------------------
          |                Property Printout                |
           -------------------------------------------------
           -------------------------------------------------
          |                Geometry Summary                 |
           -------------------------------------------------

      molecular mass/u    :      492.5296131
   center of mass at/Å    :      -11.3837123     -14.2013456       8.5595125
  moments of inertia/u·Å² :        0.2569782E+04   0.1199604E+05   0.1335997E+05
rotational constants/cm⁻¹ :        0.6559945E-02   0.1405266E-02   0.1261801E-02

 * 59 selected distances

     #   Z          #   Z                                           value/Å
     3   6  C       4   6  C                                      1.3667510
     3   6  C       5   7  N                                      1.3718271
     5   7  N       6   6  C                                      1.3602719
     4   6  C       7   7  N                                      1.3440203
     6   6  C       7   7  N                                      1.3274550
     5   7  N       8   1  H                                      1.0247736
     4   6  C       9   1  H                                      1.0823946
     6   6  C      10   1  H                                      1.0808327
     1   6  C      11   7  N                                      1.3512700
    11   7  N      12   6  C                                      1.4544955
    13   6  C      15   8  O                                      1.2135714
    11   7  N      16   1  H                                      1.0233293
    12   6  C      17   1  H                                      1.1033096
    14   6  C      18   1  H                                      1.0762616
    14   6  C      19   1  H                                      1.0869503
    13   6  C      20   7  N                                      1.3740998
    20   7  N      21   6  C                                      1.4525062
    21   6  C      23   6  C                                      1.5171532
    22   6  C      24   8  O                                      1.2129675
    20   7  N      25   1  H                                      1.0278422
    21   6  C      26   1  H                                      1.1014582
    23   6  C      27   1  H                                      1.0905989
    23   6  C      28   1  H                                      1.0904621
    23   6  C      29   1  H                                      1.0898153
    22   6  C      30   7  N                                      1.3727153
    30   7  N      31   6  C                                      1.4480102
    31   6  C      33   6  C                                      1.5173264
    32   6  C      34   8  O                                      1.2132208
    30   7  N      35   1  H                                      1.0208735
    31   6  C      36   1  H                                      1.1012787
    33   6  C      37   1  H                                      1.0895808
    33   6  C      38   1  H                                      1.0904778
    33   6  C      39   1  H                                      1.0901587
    32   6  C      40   7  N                                      1.3777400
    40   7  N      41   6  C                                      1.4534081
    42   6  C      44   8  O                                      1.2143772
    43   6  C      45   6  C                                      1.5278414 (max)
    43   6  C      46   6  C                                      1.5275556
    40   7  N      47   1  H                                      1.0193958 (min)
    41   6  C      48   1  H                                      1.1001720
    43   6  C      49   1  H                                      1.1043224
    45   6  C      50   1  H                                      1.0896350
    45   6  C      51   1  H                                      1.0901629
    45   6  C      52   1  H                                      1.0901908
    46   6  C      53   1  H                                      1.0885475
    46   6  C      54   1  H                                      1.0904956
    46   6  C      55   1  H                                      1.0904906
    42   6  C      56   7  N                                      1.3907240
    56   7  N      57   6  C                                      1.4561685
    57   6  C      58   6  C                                      1.4817730
    58   6  C      59   8  O                                      1.2040920
    56   7  N      60   1  H                                      1.0215841
    57   6  C      61   1  H                                      1.0949545
    57   6  C      62   1  H                                      1.0962354
    58   6  C      63   7  N                                      1.3894431
    63   7  N      64   6  C                                      1.3733171
    63   7  N      65   1  H                                      1.0239071
    64   6  C      66   1  H                                      1.0695179
    64   6  C      67   1  H                                      1.0817804

 * 5 distinct bonds (by element types)

   Z      Z             #   av. dist./Å        max./Å        min./Å
   1 H    6 C          25     1.0904034     1.1043224     1.0695179
   6 C    6 C           6     1.4897334     1.5278414     1.3667510
   1 H    7 N           7     1.0231008     1.0278422     1.0193958
   6 C    7 N          16     1.3935920     1.4561685     1.3274550
   6 C    8 O           5     1.2116458     1.2143772     1.2040920


optimized geometry written to: xtbopt.pdb


           -------------------------------------------------
          | TOTAL ENERGY              -11.728678554488 Eh   |
          | GRADIENT NORM               0.000385238652 Eh/α |
           -------------------------------------------------
########################################################################
[WARNING] Runtime exception occurred
-1- gfnff_setup: Could not read topology file.
########################################################################

------------------------------------------------------------------------
 unit  open   action     filename
   10 false : read       xtb_settings.inp
   10 false : read       substructure_33.pdb
   10 false : read       xtb_settings.inp
   10 false : written    gfnff_topo
   10 false : written    gfnff_adjacency
   10 false : written    gfnff_charges
   10 false : deleted    .xtboptok
   10 false : replaced   xtbopt.log
   11 false : created    .xtboptok
   11 false : replaced   gfnff_charges
   10 false : replaced   xtbopt.pdb

------------------------------------------------------------------------
 * finished run on 2025/05/27 at 09:37:46.172     
------------------------------------------------------------------------
 total:
 * wall-time:     0 d,  0 h,  0 min,  0.030 sec
 *  cpu-time:     0 d,  0 h,  0 min,  0.030 sec
 * ratio c/w:     1.000 speedup
 SCF:
 * wall-time:     0 d,  0 h,  0 min,  0.002 sec
 *  cpu-time:     0 d,  0 h,  0 min,  0.002 sec
 * ratio c/w:     1.000 speedup
 ANC optimizer:
 * wall-time:     0 d,  0 h,  0 min,  0.022 sec
 *  cpu-time:     0 d,  0 h,  0 min,  0.022 sec
 * ratio c/w:     1.000 speedup

