67
 energy: -11.717733831710 gnorm: 0.171517844169 xtb: 6.6.1 (8d0f1dd)
 C         -15.90800000000000      -16.18800000000000       13.22100000000000
 O         -16.44200000000000      -15.85100000000000       12.18600000000000
 C         -15.24400000000000      -18.98600000000000       12.11800000000000
 C         -14.36000000000000      -18.16000000000000       11.45300000000000
 N         -14.75500000000000      -20.25500000000000       11.97000000000000
 C         -13.60500000000000      -20.13100000000000       11.22900000000000
 N         -13.36200000000000      -18.88000000000000       10.91400000000000
 H         -15.16600000000000      -21.11500000000000       12.33200000000000
 H         -14.43600000000000      -17.08600000000000       11.37900000000000
 H         -12.96900000000000      -20.95600000000000       10.93200000000000
 N         -14.94600000000000      -15.43600000000000       13.84800000000000
 C         -14.36800000000000      -14.28800000000000       13.19200000000000
 C         -13.49300000000000      -14.73800000000000       12.05500000000000
 C         -13.60600000000000      -13.37200000000000       14.16000000000000
 O         -12.31400000000000      -14.95700000000000       12.23800000000000
 H         -14.44800000000000      -15.78400000000000       14.66700000000000
 H         -15.20700000000000      -13.71300000000000       12.76600000000000
 H         -13.00400000000000      -13.97800000000000       14.84200000000000
 H         -12.89300000000000      -12.77000000000000       13.58900000000000
 N         -14.12100000000000      -14.89900000000000       10.84400000000000
 C         -13.37200000000000      -15.28800000000000        9.66200000000000
 C         -12.37400000000000      -14.21100000000000        9.34200000000000
 C         -14.27900000000000      -15.55700000000000        8.47200000000000
 O         -12.76400000000000      -13.10900000000000        9.01900000000000
 H         -15.14600000000000      -14.89000000000000       10.77500000000000
 H         -12.82600000000000      -16.20600000000000        9.92800000000000
 H         -13.70500000000000      -15.87800000000000        7.60200000000000
 H         -15.01900000000000      -16.32500000000000        8.70000000000000
 H         -14.81100000000000      -14.64600000000000        8.19800000000000
 N         -11.04600000000000      -14.54300000000000        9.45700000000000
 C         -10.01200000000000      -13.58800000000000        9.12300000000000
 C         -10.13300000000000      -13.23100000000000        7.65600000000000
 C          -8.62100000000000      -14.10000000000000        9.44300000000000
 O          -9.99300000000000      -14.10800000000000        6.82900000000000
 H         -10.74300000000000      -15.48600000000000        9.70500000000000
 H         -10.22500000000000      -12.68400000000000        9.71700000000000
 H          -8.40500000000000      -14.98600000000000        8.84600000000000
 H          -7.86000000000000      -13.35300000000000        9.21100000000000
 H          -8.53000000000000      -14.37000000000000       10.49500000000000
 N         -10.39400000000000      -11.91700000000000        7.33300000000000
 C         -10.28900000000000      -11.46200000000000        5.95800000000000
 C          -8.87600000000000      -11.75000000000000        5.47300000000000
 C         -10.71300000000000       -9.99500000000000        5.75900000000000
 O          -7.93700000000000      -11.21900000000000        6.03100000000000
 C         -12.17900000000000       -9.81000000000000        6.14900000000000
 C          -9.81100000000000       -9.02400000000000        6.51900000000000
 H         -10.32500000000000      -11.18800000000000        8.04100000000000
 H         -10.97600000000000      -12.10300000000000        5.38000000000000
 H         -10.60900000000000       -9.77500000000000        4.68200000000000
 H         -12.33100000000000      -10.05400000000000        7.20000000000000
 H         -12.50800000000000       -8.78200000000000        5.99600000000000
 H         -12.83200000000000      -10.46200000000000        5.56800000000000
 H          -9.91200000000000       -9.15200000000000        7.59500000000000
 H          -8.76100000000000       -9.18200000000000        6.26800000000000
 H         -10.05900000000000       -7.98700000000000        6.29100000000000
 N          -8.67600000000000      -12.67600000000000        4.45300000000000
 C          -7.45100000000000      -13.46200000000000        4.45500000000000
 C          -6.72200000000000      -13.48300000000000        3.17400000000000
 O          -7.09600000000000      -14.18000000000000        2.25400000000000
 H          -9.47700000000000      -13.18300000000000        4.07400000000000
 H          -6.80700000000000      -13.05200000000000        5.24600000000000
 H          -7.68800000000000      -14.49000000000000        4.76400000000000
 N          -5.60200000000000      -12.69300000000000        3.11100000000000
 C          -4.79400000000000      -12.69900000000000        1.94100000000000
 H          -5.43600000000000      -11.93200000000000        3.77400000000000
 H          -3.79800000000000      -13.04300000000000        2.19900000000000
 H          -5.22800000000000      -13.43200000000000        1.24100000000000
67
 energy: -11.726016811884 gnorm: 0.063980755475 xtb: 6.6.1 (8d0f1dd)
 C         -15.90477013546385      -16.17739915959923       13.22532421213976
 O         -16.44227658856751      -15.85583238631210       12.18589012875085
 C         -15.23792623811547      -18.98592640055620       12.11596900059514
 C         -14.36483729267399      -18.16116485284873       11.45456342998320
 N         -14.74865301199370      -20.25622770237695       11.96793638384832
 C         -13.60596752113192      -20.13598620196022       11.22897219938533
 N         -13.36457283784601      -18.87475787406372       10.91304067757966
 H         -15.16695270556432      -21.11410051087563       12.33499268702608
 H         -14.44131013006507      -17.08420537455480       11.37957778896023
 H         -12.96831215154917      -20.95741262725521       10.93035944408910
 N         -14.94809183875219      -15.43651348567530       13.84815385611361
 C         -14.36346902213821      -14.28378079150856       13.19600500786672
 C         -13.49209330528434      -14.73805519892188       12.05555923001114
 C         -13.60026884319834      -13.37896132831709       14.15725971615025
 O         -12.31295346899711      -14.95894363763276       12.23722182161228
 H         -14.44803568411416      -15.78817100772612       14.66668457665729
 H         -15.20343752490650      -13.71192164236246       12.76884508706591
 H         -13.00827013533009      -13.97300546096248       14.84070771438587
 H         -12.89818227681184      -12.77026101800877       13.59078351002241
 N         -14.12092884814789      -14.89993249019380       10.84421987661232
 C         -13.37365359418143      -15.28908310393666        9.66088980214157
 C         -12.37380834320976      -14.21119964739829        9.34257363338958
 C         -14.27978191792051      -15.55679421080419        8.47189414642083
 O         -12.76389403523700      -13.10937803205479        9.01882198052663
 H         -15.14613314833111      -14.88865272852670       10.77508221026109
 H         -12.82616747086333      -16.20632781427870        9.92729882071601
 H         -13.70575229654667      -15.87771901963751        7.60198602532444
 H         -15.01984586938863      -16.32446006858385        8.69998900748882
 H         -14.81135157777098      -14.64555116781204        8.19838915012969
 N         -11.04597227048974      -14.54287726352212        9.45683463177817
 C         -10.01190341358617      -13.58701594499951        9.12229740881086
 C         -10.13329693434003      -13.23122711504663        7.65589896546227
 C          -8.62075640643209      -14.09961867235659        9.44262115533178
 O          -9.99314073825260      -14.10830742541387        6.82932739356819
 H         -10.74275275068331      -15.48558093464925        9.70522243530406
 H         -10.22494966303317      -12.68391920138829        9.71625038309529
 H          -8.40490766141967      -14.98565291332793        8.84606244885643
 H          -7.86009789736167      -13.35301298702411        9.21071728600908
 H          -8.53003380630399      -14.36945819469887       10.49487332724784
 N         -10.39402413271065      -11.91748814011703        7.33257693707514
 C         -10.28810188025633      -11.46421299007219        5.95626993829216
 C          -8.87617930816497      -11.75051314412305        5.47241918578843
 C         -10.71288881360189       -9.99514110682707        5.75921447899447
 O          -7.93710658184350      -11.21956083265023        6.03058592237375
 C         -12.17887157989153       -9.80989931509532        6.14925829083355
 C          -9.81065396589038       -9.02423828116027        6.51896215241879
 H         -10.32491531836346      -11.18811401784144        8.04086461458105
 H         -10.97598243194334      -12.10276423818940        5.38027221747180
 H         -10.60916819480767       -9.77475727300089        4.68217935524403
 H         -12.33073823515931      -10.05392212136834        7.20034518607661
 H         -12.50769315818420       -8.78169569449711        5.99652499125540
 H         -12.83212291746067      -10.46166195716632        5.56836447994300
 H          -9.91160252978131       -9.15236318682290        7.59509424693204
 H          -8.76090157671638       -9.18230484390798        6.26797642396617
 H         -10.05873711581697       -7.98712074676293        6.29119307010863
 N          -8.67726834328936      -12.67616459548636        4.45254586006821
 C          -7.45397878822908      -13.46383371290052        4.45587403828273
 C          -6.72959442387984      -13.48440979992227        3.16531309919821
 O          -7.10271701982271      -14.17935725580381        2.25038069978542
 H          -9.47838982181871      -13.18290641600221        4.07324128832961
 H          -6.80879373627685      -13.05354332530524        5.24299962671639
 H          -7.68928623301221      -14.49048047027494        4.76284020951198
 N          -5.60195293885546      -12.68835140108218        3.09278528535093
 C          -4.79127734483894      -12.72051651425529        1.96376461835871
 H          -5.44119513766618      -11.93535101460685        3.76568416816025
 H          -3.78596079096684      -13.02867108796046        2.21051842404185
 H          -5.21838832474769      -13.42126091962549        1.24685463012259
67
 energy: -11.727955525712 gnorm: 0.016961762793 xtb: 6.6.1 (8d0f1dd)
 C         -15.90369126307819      -16.16865510907830       13.22789613007705
 O         -16.44270188852907      -15.86120675916597       12.18390268940804
 C         -15.23469086784955      -18.98625725831461       12.11576536493229
 C         -14.36801548647776      -18.16156066069057       11.45560117738916
 N         -14.74449833594264      -20.25750451589339       11.96665793700885
 C         -13.60667750844596      -20.13912516425001       11.22872380976972
 N         -13.36567451440014      -18.87157592667064       10.91300332039997
 H         -15.16994228984809      -21.11216150094965       12.33678680860938
 H         -14.44206604222134      -17.08358147231900       11.37922137937593
 H         -12.96749586373976      -20.95758773499398       10.92935674623605
 N         -14.94985754231710      -15.43844238162018       13.84804605856976
 C         -14.36006327161375      -14.28049459163912       13.19895950136190
 C         -13.49178546041063      -14.73795148180769       12.05572723565785
 C         -13.59569928542475      -13.38350896622183       14.15693953473813
 O         -12.31254489653540      -14.95955966618208       12.23678933738787
 H         -14.44675722385311      -15.79095417947293       14.66611163368101
 H         -15.20219627039313      -13.71233869959798       12.76978247921323
 H         -13.00959522441524      -13.97138596180178       14.84078275654884
 H         -12.90159969871019      -12.76887406884126       13.59045255094090
 N         -14.12066334488668      -14.90059825469923       10.84431539679752
 C         -13.37479353205515      -15.28946858807353        9.65997009730505
 C         -12.37352080503608      -14.21123445575714        9.34287872624685
 C         -14.28007009062797      -15.55657813701750        8.47189616412275
 O         -12.76380223514663      -13.10954371409885        9.01873061770423
 H         -15.14606427172239      -14.88823425952411       10.77523947120362
 H         -12.82622424633549      -16.20623381195238        9.92714399624747
 H         -13.70600445489954      -15.87755947057956        7.60200757927084
 H         -15.02010633060792      -16.32420463294548        8.70011740632372
 H         -14.81154252617780      -14.64527977867484        8.19858007340311
 N         -11.04611222822303      -14.54289579910360        9.45674316531610
 C         -10.01192684450457      -13.58652189734917        9.12201885702781
 C         -10.13356370621420      -13.23128042375484        7.65593565131066
 C          -8.62058729721777      -14.09963573804604        9.44251876817652
 O          -9.99344805458947      -14.10831148863489        6.82943838412151
 H         -10.74297341975053      -15.48548898432561        9.70529399165931
 H         -10.22499906067238      -12.68419228711155        9.71623289610778
 H          -8.40480607777047      -14.98565601814390        8.84621682633107
 H          -7.86027011151463      -13.35311082455642        9.21074008719667
 H          -8.53010136921593      -14.36943068106501       10.49490606121554
 N         -10.39422169221920      -11.91749041718447        7.33249490983470
 C         -10.28787982653998      -11.46550881000318        5.95516894517377
 C          -8.87619307756005      -11.75056798380725        5.47241454873923
 C         -10.71304448954945       -9.99491306626082        5.75931744116742
 O          -7.93715005988835      -11.21945984260717        6.03050456848047
 C         -12.17891476050807       -9.80977645728497        6.14935412842445
 C          -9.81062122384399       -9.02426883857526        6.51881084195631
 H         -10.32483051160241      -11.18810118420863        8.04092445777312
 H         -10.97635321420575      -12.10247312942722        5.38029052372113
 H         -10.60936457908745       -9.77460396020057        4.68219172539420
 H         -12.33066802955052      -10.05381399894069        7.20049737853750
 H         -12.50767538907690       -8.78150213890353        5.99676591092861
 H         -12.83225830474787      -10.46143925027208        5.56854114493875
 H          -9.91154550879220       -9.15243207754704        7.59500460915088
 H          -8.76099659241650       -9.18237545514466        6.26778397982472
 H         -10.05870992976941       -7.98710294325155        6.29118474018925
 N          -8.67750289728080      -12.67604439764627        4.45239559231190
 C          -7.45462565280751      -13.46476154975633        4.45732347890437
 C          -6.73639444754367      -13.48393793252835        3.16005336563276
 O          -7.10572622866956      -14.17832020188349        2.24788546699367
 H          -9.47868725548664      -13.18300818649502        4.07295224984042
 H          -6.80933848981053      -13.05382229797417        5.24181745961971
 H          -7.68938933132157      -14.49067199679130        4.76233322645548
 N          -5.60714238454458      -12.67887119301597        3.07699432919610
 C          -4.78564039529455      -12.74023990383743        1.97691974929064
 H          -5.44386750214561      -11.93864023422503        3.76471836408601
 H          -3.77793348708462      -13.01966267817080        2.21895030881574
 H          -5.21419179727774      -13.41700452913209        1.24897588622461
67
 energy: -11.728148893160 gnorm: 0.009511912056 xtb: 6.6.1 (8d0f1dd)
 C         -15.90455009637561      -16.16645142427212       13.22789605980027
 O         -16.44298882941837      -15.86254423647787       12.18283031178173
 C         -15.23456665989268      -18.98651793398204       12.11623797815414
 C         -14.36846624675817      -18.16143629072310       11.45561243386985
 N         -14.74374943766593      -20.25794321536640       11.96652453909275
 C         -13.60674041395879      -20.13925551304366       11.22843240668533
 N         -13.36541233365617      -18.87139971119510       10.91330323141692
 H         -15.17193821666786      -21.11128206194568       12.33651228303590
 H         -14.44105298206701      -17.08380882169028       11.37925977015837
 H         -12.96700215620578      -20.95740199441034       10.92966149250739
 N         -14.95012451432435      -15.43958255316541       13.84810490571311
 C         -14.35946034833860      -14.28007144230857       13.19934543008920
 C         -13.49195766978365      -14.73792063062822       12.05560892866418
 C         -13.59510776529287      -13.38383485542541       14.15732209046190
 O         -12.31267649467252      -14.95939404484979       12.23683212049493
 H         -14.44570491504139      -15.79114294377714       14.66614187625711
 H         -15.20234756885553      -13.71269462990992       12.76965957306635
 H         -13.00920827444262      -13.97184726646683       14.84099530195360
 H         -12.90228102107753      -12.76819811707549       13.58998080505896
 N         -14.12053234918242      -14.90071408307177       10.84432706830846
 C         -13.37494214330236      -15.28938797749954        9.65982877996566
 C         -12.37340133388705      -14.21121398040992        9.34290036050099
 C         -14.27999514961613      -15.55655745845747        8.47193721693427
 O         -12.76386021271845      -13.10955654805347        9.01871337129049
 H         -15.14597702222502      -14.88829157338088       10.77530594818390
 H         -12.82619326896406      -16.20615346732231        9.92723218548570
 H         -13.70592554396349      -15.87758937022564        7.60202463190780
 H         -15.02001497898007      -16.32425531667607        8.70013740525961
 H         -14.81151990060073      -14.64528571676624        8.19858303470638
 N         -11.04617533031924      -14.54296903789605        9.45673743326797
 C         -10.01195045523457      -13.58652986241866        9.12202247018245
 C         -10.13356823479877      -13.23124662250674        7.65593776838573
 C          -8.62053264276525      -14.09975296484379        9.44248168180282
 O          -9.99347183579026      -14.10818052102919        6.82932524133571
 H         -10.74316369587114      -15.48560006976037        9.70527938378712
 H         -10.22503738001623      -12.68436254134640        9.71643679670832
 H          -8.40476197183379      -14.98576768163799        8.84619156577864
 H          -7.86033292635513      -13.35311619741602        9.21072019797150
 H          -8.53007668868720      -14.36957231333719       10.49486036404920
 N         -10.39427532863614      -11.91736398838278        7.33252308038170
 C         -10.28798061565541      -11.46557791663271        5.95506712114383
 C          -8.87615316220803      -11.75046163221264        5.47256391492258
 C         -10.71311380157201       -9.99481312344903        5.75931736914768
 O          -7.93712278810535      -11.21934841597728        6.03052658736141
 C         -12.17893763606647       -9.80977709676749        6.14933570113776
 C          -9.81069550111358       -9.02424583506643        6.51875264675737
 H         -10.32482223812494      -11.18807553056200        8.04095295098177
 H         -10.97642797863216      -12.10246816399289        5.38021894333220
 H         -10.60937565204102       -9.77462051520031        4.68216224396272
 H         -12.33069718981563      -10.05380800743262        7.20048241767740
 H         -12.50771385781131       -8.78151026309290        5.99673994399728
 H         -12.83227264529707      -10.46144598034914        5.56853172716032
 H          -9.91163011009549       -9.15238022413841        7.59494774906425
 H          -8.76106047734598       -9.18232592113998        6.26771708683909
 H         -10.05877600670809       -7.98708309907540        6.29112332999909
 N          -8.67725454835034      -12.67594330858239        4.45248673195188
 C          -7.45376380424723      -13.46474619043333        4.45805901637411
 C          -6.73780727962896      -13.48336616926338        3.15988768316179
 O          -7.10472365097763      -14.17892741998022        2.24820378246218
 H          -9.47848110856540      -13.18305306131010        4.07309164433984
 H          -6.80901811680150      -13.05354918562357        5.24222688303219
 H          -7.68919560636919      -14.49061245401009        4.76246873768799
 N          -5.61115975321351      -12.67382460270334        3.07248039961241
 C          -4.78397548768343      -12.74515124942440        1.97750684548098
 H          -5.44213928662101      -11.94115828622182        3.76731109276570
 H          -3.77727928559565      -13.01728349446741        2.22008648132324
 H          -5.21537807311067      -13.41724787373876        1.24798344386650
67
 energy: -11.728220384850 gnorm: 0.003854997030 xtb: 6.6.1 (8d0f1dd)
 C         -15.90560174133797      -16.16532765333054       13.22748283110114
 O         -16.44322806714318      -15.86316616896081       12.18206632954658
 C         -15.23464929696493      -18.98669922293342       12.11674532460897
 C         -14.36867101995539      -18.16131615253206       11.45527136492520
 N         -14.74315313095404      -20.25826114970213       11.96678825751455
 C         -13.60674447385323      -20.13893841158819       11.22805056041550
 N         -13.36509545875147      -18.87167479351722       10.91351205033074
 H         -15.17393448090123      -21.11063626696495       12.33575326231443
 H         -14.44018098403807      -17.08403614228246       11.37945189394805
 H         -12.96640788736885      -20.95720619774250       10.93046326616558
 N         -14.95004555407653      -15.44054675420529       13.84822041743085
 C         -14.35935849686145      -14.28017757971391       13.19930772923980
 C         -13.49220073171369      -14.73790421942209       12.05545386719934
 C         -13.59533986038770      -13.38344371391092       14.15755369581215
 O         -12.31285767805489      -14.95915026908434       12.23693470956037
 H         -14.44475180468401      -15.79092920997308       14.66633060300678
 H         -15.20255969999472      -13.71289398513445       12.76949889833088
 H         -13.00894389605577      -13.97224762182739       14.84108360298426
 H         -12.90247333035710      -12.76790101431803       13.58969512522935
 N         -14.12046524550681      -14.90074628156375       10.84431901860436
 C         -13.37493486265447      -15.28927644682157        9.65983180297119
 C         -12.37330195220135      -14.21119526057262        9.34290546640081
 C         -14.27988726701755      -15.55658263324217        8.47196276324740
 O         -12.76394120776479      -13.10956767793852        9.01867808216481
 H         -15.14592881192600      -14.88835568490035       10.77532426119777
 H         -12.82615889804333      -16.20611346338746        9.92730952037823
 H         -13.70581686221104      -15.87764845278479        7.60203105196527
 H         -15.01989896269168      -16.32434233692318        8.70011613163990
 H         -14.81146577739149      -14.64533787124964        8.19854562803101
 N         -11.04619472228129      -14.54305517407620        9.45678948193813
 C         -10.01195318009236      -13.58658980203604        9.12207382695534
 C         -10.13349754653370      -13.23122624045398        7.65595281443693
 C          -8.62049787379819      -14.09985467425999        9.44249269665332
 O          -9.99337959642264      -14.10804166168347        6.82920092353668
 H         -10.74332127446794      -15.48574205818111        9.70532481742990
 H         -10.22507291683429      -12.68447767892982        9.71664449440292
 H          -8.40474147585694      -14.98589243842680        8.84621297970501
 H          -7.86037156814892      -13.35309699809396        9.21072379648150
 H          -8.53006378288583      -14.36968320952199       10.49485242918508
 N         -10.39426475349972      -11.91727776925888        7.33256018677653
 C         -10.28806583500401      -11.46548439444374        5.95512826762108
 C          -8.87612645156914      -11.75037392090671        5.47268738221385
 C         -10.71311288412157       -9.99478031167869        5.75932307675364
 O          -7.93707270606788      -11.21932338439408        6.03054983761007
 C         -12.17892343930738       -9.80979548844977        6.14931549911122
 C          -9.81072466319736       -9.02423590746146        6.51874340233158
 H         -10.32481666888063      -11.18806454922960        8.04097711538793
 H         -10.97640170307751      -12.10251536524989        5.38018397290102
 H         -10.60933208106541       -9.77464831997906        4.68216022458481
 H         -12.33071399153836      -10.05381966358899        7.20045240589347
 H         -12.50772251143853       -8.78153997875194        5.99669393404032
 H         -12.83224600415307      -10.46147839165156        5.56850522111265
 H          -9.91167339594540       -9.15234240106315        7.59493229717579
 H          -8.76106408539811       -9.18229199937404        6.26771477294103
 H         -10.05879390040555       -7.98707590410554        6.29109845167740
 N          -8.67702562349287      -12.67589720252606        4.45261200186153
 C          -7.45274721477546      -13.46463143601843        4.45864021092121
 C          -6.73820520145472      -13.48284263261557        3.16031384264844
 O          -7.10289766748480      -14.18042590658287        2.24935717016085
 H          -9.47828572159982      -13.18306126982828        4.07325597500252
 H          -6.80861541027312      -13.05330979085469        5.24279455385271
 H          -7.68908013073942      -14.49055259931832        4.76259637251490
 N          -5.61498227584449      -12.66951097079083        3.06914909914656
 C          -4.78373436103766      -12.74697474950120        1.97636608787957
 H          -5.43934868606894      -11.94427515568024        3.77044417305517
 H          -3.77775440645346      -13.01557623501131        2.21988123108966
 H          -5.21717684792077      -13.41761172949387        1.24660745674436
67
 energy: -11.728231287503 gnorm: 0.002873326121 xtb: 6.6.1 (8d0f1dd)
 C         -15.90581251796865      -16.16537280937337       13.22731010491855
 O         -16.44325155101811      -15.86310722824702       12.18203742752245
 C         -15.23455890384708      -18.98670248284445       12.11693423496910
 C         -14.36876491530697      -18.16132561103747       11.45497232174977
 N         -14.74276923556400      -20.25831822534433       11.96720246308817
 C         -13.60677869387153      -20.13879249282102       11.22783467989803
 N         -13.36509532405111      -18.87183623890533       10.91345514578042
 H         -15.17464999142945      -21.11056364459172       12.33520027563329
 H         -14.44011449920625      -17.08403378895354       11.37957551772362
 H         -12.96610836909802      -20.95714803886333       10.93093097857904
 N         -14.94986832992631      -15.44069918879249       13.84827001353340
 C         -14.35948029848274      -14.28036224731928       13.19919647270525
 C         -13.49225363014277      -14.73790891318917       12.05541988893479
 C         -13.59562944341516      -13.38318820368563       14.15750952043349
 O         -12.31288520670536      -14.95909988558186       12.23696181108259
 H         -14.44459694983412      -15.79080108218724       14.66642618372171
 H         -15.20256893520830      -13.71286421348745       12.76949213497140
 H         -13.00898219766438      -13.97222710634510       14.84104705727970
 H         -12.90231493748541      -12.76800627163339       13.58974122514471
 N         -14.12047569400757      -14.90073158374945       10.84431101564429
 C         -13.37489066459067      -15.28925536962221        9.65987571249625
 C         -12.37328303775163      -14.21119100987040        9.34291008439489
 C         -14.27986813140860      -15.55659810261196        8.47195905610591
 O         -12.76396428941384      -13.10957373504418        9.01866003547174
 H         -15.14593572647827      -14.88835340858363       10.77531526422828
 H         -12.82615670697821      -16.20612268008506        9.92730610574456
 H         -13.70579980139564      -15.87765992092814        7.60202718446645
 H         -15.01988064976844      -16.32435929270574        8.70010239718073
 H         -14.81145147310784      -14.64535429438364        8.19853152299664
 N         -11.04618024322634      -14.54308431611585        9.45682913081208
 C         -10.01194764976870      -13.58660659512944        9.12208938960438
 C         -10.13346726375363      -13.23123247951945        7.65596186956340
 C          -8.62050431359748      -14.09986235136624        9.44251280724047
 O          -9.99332552344909      -14.10799951093683        6.82916020098025
 H         -10.74335366774417      -15.48579288127928        9.70536016045963
 H         -10.22508696285721      -12.68447827232146        9.71667178618154
 H          -8.40476156527243      -14.98592830571366        8.84625679265352
 H          -7.86037933353185      -13.35308639735589        9.21073120374071
 H          -8.53008404387393      -14.36967574637185       10.49487226383068
 N         -10.39424705515439      -11.91728524059837        7.33256151212905
 C         -10.28807356811912      -11.46542449436508        5.95517629392936
 C          -8.87614769135544      -11.75036284520726        5.47267508920904
 C         -10.71309164847556       -9.99479607609158        5.75932529308287
 O          -7.93706884564058      -11.21934629398359        6.03053901236557