      -----------------------------------------------------------      
     |                   =====================                   |     
     |                           x T B                           |     
     |                   =====================                   |     
     |                         S. Grimme                         |     
     |          Mulliken Center for Theoretical Chemistry        |     
     |                    University of Bonn                     |     
      -----------------------------------------------------------      

   * xtb version 6.6.1 (8d0f1dd) compiled by 'conda@1efc2f54142f' on 2023-08-01

   xtb is free software: you can redistribute it and/or modify it under
   the terms of the GNU Lesser General Public License as published by
   the Free Software Foundation, either version 3 of the License, or
   (at your option) any later version.
   
   xtb is distributed in the hope that it will be useful,
   but WITHOUT ANY WARRANTY; without even the implied warranty of
   MERCHANTABILITY or FITNESS FOR A PARTICULAR PURPOSE.  See the
   GNU Lesser General Public License for more details.
   
   Cite this work as:
   * C. Bannwarth, E. Caldeweyher, S. Ehlert, A. Hansen, P. Pracht,
     J. Seibert, S. Spicher, S. Grimme, WIREs Comput. Mol. Sci., 2020, 11,
     e01493. DOI: 10.1002/wcms.1493
   
   for GFN2-xTB:
   * C. Bannwarth, S. Ehlert and S. Grimme., J. Chem. Theory Comput., 2019,
     15, 1652-1671. DOI: 10.1021/acs.jctc.8b01176
   for GFN1-xTB:
   * S. Grimme, C. Bannwarth, P. Shushkov, J. Chem. Theory Comput., 2017,
     13, 1989-2009. DOI: 10.1021/acs.jctc.7b00118
   for GFN0-xTB:
   * P. Pracht, E. Caldeweyher, S. Ehlert, S. Grimme, ChemRxiv, 2019, preprint.
     DOI: 10.26434/chemrxiv.8326202.v1
   for GFN-FF:
   * S. Spicher and S. Grimme, Angew. Chem. Int. Ed., 2020, 59, 15665-15673.
     DOI: 10.1002/anie.202004239
   
   for ALPB and GBSA implicit solvation:
   * S. Ehlert, M. Stahn, S. Spicher, S. Grimme, J. Chem. Theory Comput.,
     2021, 17, 4250-4261. DOI: 10.1021/acs.jctc.1c00471
   
   for DFT-D4:
   * E. Caldeweyher, C. Bannwarth and S. Grimme, J. Chem. Phys., 2017,
     147, 034112. DOI: 10.1063/1.4993215
   * E. Caldeweyher, S. Ehlert, A. Hansen, H. Neugebauer, S. Spicher,
     C. Bannwarth and S. Grimme, J. Chem. Phys., 2019, 150, 154122.
     DOI: 10.1063/1.5090222
   * E. Caldeweyher, J.-M. Mewes, S. Ehlert and S. Grimme, Phys. Chem. Chem. Phys.
     2020, 22, 8499-8512. DOI: 10.1039/D0CP00502A
   
   for sTDA-xTB:
   * S. Grimme and C. Bannwarth, J. Chem. Phys., 2016, 145, 054103.
     DOI: 10.1063/1.4959605
   
   in the mass-spec context:
   * V. Asgeirsson, C. Bauer and S. Grimme, Chem. Sci., 2017, 8, 4879.
     DOI: 10.1039/c7sc00601b
   * J. Koopman and S. Grimme, ACS Omega 2019, 4, 12, 15120-15133.
     DOI: 10.1021/acsomega.9b02011
   
   for metadynamics refer to:
   * S. Grimme, J. Chem. Theory Comput., 2019, 155, 2847-2862
     DOI: 10.1021/acs.jctc.9b00143
   
   for SPH calculations refer to:
   * S. Spicher and S. Grimme, J. Chem. Theory Comput., 2021, 17, 1701-1714
     DOI: 10.1021/acs.jctc.0c01306
   
   with help from (in alphabetical order)
   P. Atkinson, C. Bannwarth, F. Bohle, G. Brandenburg, E. Caldeweyher
   M. Checinski, S. Dohm, S. Ehlert, S. Ehrlich, I. Gerasimov, C. Hölzer
   A. Katbashev, J. Koopman, C. Lavigne, S. Lehtola, F. März, M. Müller,
   F. Musil, H. Neugebauer, J. Pisarek, C. Plett, P. Pracht, F. Pultar,
   J. Seibert, P. Shushkov, S. Spicher, M. Stahn, M. Steiner, T. Strunk,
   J. Stückrath, T. Rose, and J. Unsleber
   
 * started run on 2025/05/27 at 09:37:43.607     

           -------------------------------------------------
          |                Calculation Setup                |
           -------------------------------------------------

          program call               : xtb substructure_27.pdb --gfnff --input xtb_settings.inp --opt vtight --alpb water --verbose
          coordinate file            : substructure_27.pdb
          xtbhome directory          : /home/dargen3
          path for xtb               : /home/dargen3
          xcontrol input file        : xtb_settings.inp
          omp threads                :                     1

$$$$$$$$$$$$$$$$$$$$$$$$$$$$$$$$$$$$$$$$$$$$$$$$$$$$$$$$$$$$$$$$$$$$$$$$
 CONSTRAINTS & SCANS: DEBUG SECTION
$$$$$$$$$$$$$$$$$$$$$$$$$$$$$$$$$$$$$$$$$$$$$$$$$$$$$$$$$$$$$$$$$$$$$$$$
   ID    Z sym.   atoms
    1    6  C     1, 2, 8-10, 16, 17, 23, 24, 30, 31, 37, 38, 44
    2    8  O     3, 11, 18, 25, 32, 39
    3    1  H     4-6, 12-14, 19-21, 26-28, 33-35, 40-42, 45-47
    4    7  N     7, 15, 22, 29, 36, 43
> constrain
-> atoms: 1, 2, 3, 4, 5, 6, 7, 8, 9, 10, 11, 12, 13, 14, 15, 16, 17, 18, 19, 20, 21, 23, 29, 30, 31, 32, 33, 34, 35, 36, 37, 38, 39, 40, 41, 42, 43, 44, 45, 46, 47
--> 1: 1
--> 2: 2
--> 3: 3
--> 4: 4
--> 5: 5
--> 6: 6
--> 7: 7
--> 8: 8
--> 9: 9
--> 10: 10
--> 11: 11
--> 12: 12
--> 13: 13
--> 14: 14
--> 15: 15
--> 16: 16
--> 17: 17
--> 18: 18
--> 19: 19
--> 20: 20
--> 21: 21
--> 22: 23
--> 23: 29
--> 24: 30
--> 25: 31
--> 26: 32
--> 27: 33
--> 28: 34
--> 29: 35
--> 30: 36
--> 31: 37
--> 32: 38
--> 33: 39
--> 34: 40
--> 35: 41
--> 36: 42
--> 37: 43
--> 38: 44
--> 39: 45
--> 40: 46
--> 41: 47
-> force constant=1.0
$$$$$$$$$$$$$$$$$$$$$$$$$$$$$$$$$$$$$$$$$$$$$$$$$$$$$$$$$$$$$$$$$$$$$$$$

molecular fragmentation (1/2 indicates fragments):
12122211111111111111111111111111111111111111111
# atoms in fragment 1/2:    43     4
 fragment masses (1/2) :      354.32       15.03
CMA distance (Bohr)    :  16.310
constraining FC (au)   :  1.0000
           -------------------------------------------------
          |                   Constraints                   |
           -------------------------------------------------

 * 41 constrained atom positions
   positions refering to input geometry

     #   Z                                   position/Å      displ./Å
     1   6 C    -10.1290009   -13.2300012     7.6570007     0.0000000
     2   6 C     -8.6210008   -14.1000013     9.4460009     0.0000000
     3   8 O    -10.0060009   -14.1080013     6.8290006     0.0000000
     4   1 H     -8.4040008   -14.9860014     8.8490008     0.0000000
     5   1 H     -7.8600007   -13.3530012     9.2170009     0.0000000
     6   1 H     -8.5340008   -14.3710013    10.4980010     0.0000000
     7   7 N    -10.3720010   -11.9120011     7.3350007     0.0000000
     8   6 C    -10.2890010   -11.4620011     5.9580006     0.0000000
     9   6 C     -8.8870008   -11.7510011     5.4480005     0.0000000
    10   6 C    -10.7230010    -9.9970009     5.7590005     0.0000000
    11   8 O     -7.9410007   -11.1840010     5.9560006     0.0000000
    12   1 H    -10.2980010   -11.1820010     8.0430007     0.0000000
    13   1 H    -10.9860010   -12.1060011     5.3930005     0.0000000
    14   1 H    -10.6330010    -9.7810009     4.6800004     0.0000000
    15   7 N     -8.7020008   -12.7200012     4.4650004     0.0000000
    16   6 C     -7.4510007   -13.4620012     4.4550004     0.0000000
    17   6 C     -6.7390006   -13.4590012     3.1640003     0.0000000
    18   8 O     -7.1640007   -14.0810013     2.2140002     0.0000000
    19   1 H     -9.5020009   -13.2680012     4.1430004     0.0000000
    20   1 H     -6.8140006   -13.0300012     5.2380005     0.0000000
    21   1 H     -7.6480007   -14.4990013     4.7670004     0.0000000
    23   6 C     -4.7940004   -12.6990012     1.9410002     0.0000000
    29   7 N     -3.6040003   -10.7280010     0.8750001     0.0000000
    30   6 C     -2.2890002   -11.3470011     0.7820001     0.0000000
    31   6 C     -1.8010002   -11.4060011    -0.6330001     0.0000000
    32   8 O     -2.3440002   -12.1520011    -1.4170001     0.0000000
    33   1 H     -3.6740003    -9.8400009     0.3840000     0.0000000
    34   1 H     -1.5860001   -10.7960010     1.4130001     0.0000000
    35   1 H     -2.3150002   -12.3700011     1.1720001     0.0000000
    36   7 N     -0.7480001   -10.5950010    -0.9970001     0.0000000
    37   6 C     -0.3730000   -10.4770010    -2.3880002     0.0000000
    38   6 C     -0.7540001    -9.1130008    -2.9220003     0.0000000
    39   8 O     -1.7970002    -8.6240008    -2.5420002     0.0000000
    40   1 H     -0.4440000    -9.8240009    -0.4000000     0.0000000
    41   1 H      0.6980001   -10.6570010    -2.4780002     0.0000000
    42   1 H     -0.9060001   -11.2450010    -2.9440003     0.0000000
    43   7 N      0.0410000    -8.4450008    -3.8370004     0.0000000
    44   6 C      1.3240001    -8.8870008    -4.3620004     0.0000000
    45   1 H     -0.3040000    -7.5850007    -4.2570004     0.0000000
    46   1 H      2.1250002    -8.5310008    -3.7350003     0.0000000
    47   1 H      1.3500001    -9.9940009    -4.3530004     0.0000000

     applying 820 atom pairwise harmonic potentials
       applied force constant per pair:     0.0250000
     effective force constant per atom:     1.0000000
         constraining energy/grad norm:     0.0000000     0.0000000

     total constraint energy/grad norm:     0.0000000     0.0000000

          charge from pdb residues: 0

          entering GFN-FF setup routine... 47

          ==================== Thresholds ====================
          CN  :   150.00000
          rep :   500.00000
          disp:  2500.00000
          HB1 :   250.00000
          HB2 :   450.00000

          Pauling EN used:
          Z : 1  EN :  2.20
          Z : 6  EN :  2.55
          Z : 7  EN :  3.04
          Z : 8  EN :  3.44
          electric field strengths (au): 0.000

           ------------------------------------------------- 
          |           Force Field Initialization            |
           ------------------------------------------------- 

          distances ...
          ----------------------------------------
          generating topology and atomic info file ...
          pair mat ...
          computing topology distances matrix with Floyd-Warshall algo ...
          making topology EEQ charges ...
          #fragments for EEQ constrain from pdb file: 7
          ----------------------------------------
          generating topology and atomic info file ...
          pair mat ...
          computing topology distances matrix with Floyd-Warshall algo ...
          making topology EEQ charges ...
          #fragments for EEQ constrain from pdb file: 7
          rings ...
          # BATM   348
          # H in HB   21
          doing iterative Hueckel for 8 subsystem(s) ...
          iterative Hueckel run to get P ...
Hueckel system :  1 charge :   0 ndim/Nel :    3    3   eps(HOMO/LUMO)   -0.975876   -0.975876
Hueckel system :  3 charge :   0 ndim/Nel :    3    4   eps(HOMO/LUMO)   -0.916490   -0.916490
Hueckel system :  5 charge :   0 ndim/Nel :    3    4   eps(HOMO/LUMO)   -0.913323   -0.913323
Hueckel system :  6 charge :   0 ndim/Nel :    3    4   eps(HOMO/LUMO)   -0.912140   -0.912140
Hueckel system :  7 charge :   0 ndim/Nel :    3    4   eps(HOMO/LUMO)   -0.910058   -0.910058
Hueckel system :  8 charge :   0 ndim/Nel :    4    5   eps(HOMO/LUMO)    1.305313    1.305313
WARNING: probably wrong pi occupation for system 8. Second attempt with Nel=Nel-1!
 at,nb,topo%hyb,Npiel:          38  C             3           2           1
 at,nb,topo%hyb,Npiel:          39  O             1           2           1
 at,nb,topo%hyb,Npiel:          43  N             3           3           2
 at,nb,topo%hyb,Npiel:          44  C             3           2           1

          eigenvalues
 #    :           1          2          3          4
 occ. :        2.000      1.987      0.013      0.000
 eps  :        -4.349     -2.183      1.305      3.389
Hueckel system :  8 charge :   0 ndim/Nel :    4    4   eps(HOMO/LUMO)   -2.182833    1.305313

  atom   neighbors  erfCN metchar sp-hybrid imet pi  qest     coordinates
    1   C      2    1.94   0.00        -2    0    1  -0.027  -19.141036  -25.001077   14.469633
    2   C      3    2.78   0.00         3    0    0  -0.068  -16.291329  -26.645138   17.850353
    3   O      1    0.98   0.00         2    0    1  -0.246  -18.908600  -26.660256   12.904940
    4   H      1    0.97   0.00         0    0    0   0.114  -15.881258  -28.319436   16.722186
    5   H      1    0.97   0.00         0    0    0   0.114  -14.853247  -25.233513   17.417606
    6   H      1    0.97   0.00         0    0    0   0.114  -16.126923  -27.157254   19.838345
    7   N      3    2.79   0.00        -3    0    1  -0.065  -19.600239  -22.510418   13.861141
    8   C      4    3.49   0.00         3    0    0   0.090  -19.443392  -21.660041   11.258988
    9   C      3    2.80   0.00         2    0    1   0.172  -16.793996  -22.206172   10.295228
   10   C      2    1.91   0.00        -2    0    0  -0.265  -20.263533  -18.891592   10.882933
   11   O      1    0.98   0.00         2    0    1  -0.354  -15.006315  -21.134697   11.255209
   12   H      1    0.98   0.00         0    0    0   0.139  -19.460400  -21.130918   15.199067
   13   H      1    0.97   0.01         0    0    0   0.089  -20.760531  -22.877024   10.191293
   14   H      1    0.97   0.01         0    0    0   0.195  -20.093458  -18.483411    8.843918
   15   N      3    2.79   0.00        -3    0    1  -0.157  -16.444397  -24.037316    8.437627
   16   C      4    3.50   0.00         3    0    0   0.007  -14.080349  -25.439493    8.418730
   17   C      3    2.80   0.00         2    0    1   0.172  -12.734864  -25.433824    5.979093
   18   O      1    0.98   0.00         2    0    1  -0.356  -13.537998  -26.609234    4.183854
   19   H      1    0.98   0.00         0    0    0   0.153  -17.956178  -25.072886    7.829135
   20   H      1    0.97   0.01         0    0    0   0.091  -12.876594  -24.623131    9.898385
   21   H      1    0.97   0.01         0    0    0   0.091  -14.452625  -27.399139    9.008324
   22   N      3    2.80   0.00        -3    0    1  -0.163  -10.518216  -24.082670    5.920512
   23   C      4    3.50   0.00         3    0    0   0.005   -9.059347  -23.997632    3.667958
   24   C      3    2.79   0.00         2    0    1   0.175   -9.006435  -21.370913    2.558689
   25   O      1    0.98   0.00         2    0    1  -0.354  -10.983088  -20.210621    2.449085
   26   H      1    0.98   0.00         0    0    0   0.152  -10.111924  -22.731516    7.239541
   27   H      1    0.97   0.00         0    0    0   0.092   -7.184739  -24.730846    4.051573
   28   H      1    0.97   0.01         0    0    0   0.092   -9.962636  -25.271307    2.284679
   29   N      3    2.79   0.00        -3    0    1  -0.166   -6.810573  -20.272982    1.653510
   30   C      4    3.49   0.00         3    0    0   0.004   -4.325583  -21.442722    1.477766
   31   C      3    2.80   0.00         2    0    1   0.178   -3.403397  -21.554216   -1.196197
   32   O      1    0.98   0.00         2    0    1  -0.354   -4.429518  -22.963952   -2.677742
   33   H      1    0.98   0.00         0    0    0   0.151   -6.942854  -18.594905    0.725655
   34   H      1    0.97   0.00         0    0    0   0.093   -2.997106  -20.401483    2.670183
   35   H      1    0.97   0.00         0    0    0   0.093   -4.374716  -23.375912    2.214759
   36   N      3    2.79   0.00        -3    0    1  -0.170   -1.413515  -20.021648   -1.884057
   37   C      4    3.49   0.00         3    0    0   0.006   -0.704868  -19.798661   -4.512666
   38   C      3    2.79   0.00         2    0    1   0.195   -1.424853  -17.221074   -5.521780
   39   O      1    0.98   0.00         2    0    1  -0.357   -3.395838  -16.296998   -4.803684
   40   H      1    0.98   0.00         0    0    0   0.147   -0.839038  -18.564669   -0.755890
   41   H      1    0.97   0.00         0    0    0   0.090    1.319029  -20.138811   -4.682741
   42   H      1    0.97   0.00         0    0    0   0.090   -1.712092  -21.249970   -5.563354
   43   N      3    2.79   0.00         3    0    1  -0.226    0.077479  -15.958737   -7.250879
   44   C      3    2.78   0.00         2    0    1  -0.008    2.501997  -16.793996   -8.242985
   45   H      1    0.98   0.00         0    0    0   0.123   -0.574477  -14.333573   -8.044564
   46   H      1    0.97   0.00         0    0    0   0.055    4.015668  -16.121254   -7.058127
   47   H      1    0.97   0.01         0    0    0   0.055    2.551130  -18.885923   -8.225978

molecular fragment  # atoms  topo charge
       1             6             0.000
       2             8             0.000
       3             7            -0.000
       4             7            -0.000
       5             7             0.000
       6             7             0.000
       7             5            -0.000


          #atoms :   47
          #bonds :   45

 bond atoms        type  in ring    R      R0    piBO    fqq  kbond(tot)  alp
 O  C     3    1      2    0     1.213   0.997   0.790   1.000  -0.239   0.584
 H  C     4    2      1    0     1.090   0.938 -99.000   1.047  -0.169   0.482
 H  C     5    2      1    0     1.091   0.938 -99.000   1.047  -0.169   0.482
 H  C     6    2      1    0     1.090   0.938 -99.000   1.047  -0.169   0.482
 N  C     7    1      2    0     1.378   1.214   0.510   1.006  -0.227   0.524
 C  N     8    7      1    0     1.451   1.326 -99.000   1.047  -0.153   0.496
 C  C     9    8      1    0     1.520   1.332 -99.000   1.000  -0.160   0.475
 C  C    10    8      1    0     1.541   1.283 -99.000   1.047  -0.168   0.475
 O  C    11    9      2    0     1.214   1.031   0.857   1.047  -0.262   0.584
 H  N    12    7      1    0     1.020   0.890 -99.000   1.047  -0.176   0.551
 H  C    13    8      1    0     1.104   0.976 -99.000   1.000  -0.161   0.482
 H  C    14   10      1    0     1.104   0.902 -99.000   1.047  -0.182   0.490
 N  C    15    9      2    0     1.393   1.263   0.502   1.047  -0.234   0.524
 C  N    16   15      1    0     1.455   1.326 -99.000   1.036  -0.151   0.496
 C  C    17   16      1    0     1.474   1.333 -99.000   1.010  -0.162   0.475
 O  C    18   17      2    0     1.212   1.031   0.857   1.047  -0.262   0.584
 H  N    19   15      1    0     1.022   0.890 -99.000   1.047  -0.176   0.551
 H  C    20   16      1    0     1.098   0.977 -99.000   1.016  -0.164   0.482
 H  C    21   16      1    0     1.101   0.977 -99.000   1.016  -0.164   0.482
 N  C    22   17      2    0     1.374   1.264   0.502   1.047  -0.234   0.524
 C  N    23   22      1    0     1.421   1.326 -99.000   1.033  -0.151   0.496
 C  C    24   23      1    0     1.509   1.332 -99.000   1.013  -0.162   0.475
 O  C    25   24      2    0     1.214   1.031   0.857   1.047  -0.262   0.584
 H  N    26   22      1    0     1.022   0.890 -99.000   1.047  -0.176   0.551
 H  C    27   23      1    0     1.084   0.977 -99.000   1.018  -0.164   0.482
 H  C    28   23      1    0     1.104   0.977 -99.000   1.018  -0.164   0.482
 N  C    29   24      2    0     1.385   1.263   0.503   1.047  -0.234   0.524
 C  N    30   29      1    0     1.456   1.326 -99.000   1.032  -0.151   0.496
 C  C    31   30      1    0     1.498   1.332 -99.000   1.015  -0.163   0.475
 O  C    32   31      2    0     1.211   1.031   0.856   1.047  -0.262   0.584
 H  N    33   29      1    0     1.017   0.890 -99.000   1.047  -0.176   0.551
 H  C    34   30      1    0     1.094   0.976 -99.000   1.019  -0.164   0.482
 H  C    35   30      1    0     1.095   0.976 -99.000   1.019  -0.164   0.482
 N  C    36   31      2    0     1.378   1.263   0.503   1.047  -0.234   0.524
 C  N    37   36      1    0     1.445   1.326 -99.000   1.034  -0.151   0.496
 C  C    38   37      1    0     1.514   1.332 -99.000   1.011  -0.162   0.475
 O  C    39   38      2    0     1.213   1.018   0.930   1.047  -0.274   0.584
 H  N    40   36      1    0     1.021   0.890 -99.000   1.047  -0.176   0.551
 H  C    41   37      1    0     1.090   0.977 -99.000   1.018  -0.164   0.482
 H  C    42   37      1    0     1.088   0.977 -99.000   1.018  -0.164   0.482
 N  C    43   38      2    0     1.384   1.291   0.346   1.047  -0.203   0.524
 C  N    44   43      2    0     1.455   1.189   0.906   1.006  -0.302   0.524
 H  N    45   43      1    0     1.017   0.890 -99.000   1.047  -0.176   0.551
 H  C    46   44      1    0     1.078   0.950 -99.000   1.029  -0.179   0.490
 H  C    47   44      1    0     1.107   0.949 -99.000   1.029  -0.179   0.490
          #angl  :   71

 angle atoms        phi0    phi      FC  pi rings
    1    7    3   145.000 123.401   0.084 F   0
    2    5    4   108.600 107.623   0.179 F   0
    2    6    4   108.600 108.097   0.179 F   0
    2    6    5   108.600 108.499   0.179 F   0
    7    8    1   115.000 120.541   0.415 F   0
    7   12    1   115.000 120.637   0.342 F   0
    7   12    8   104.000 115.643   0.183 F   0
    8    9    7   109.500 108.197   0.308 F   0
    8   10    7   109.500 113.660   0.302 F   0
    8   10    9   109.500 113.412   0.303 F   0
    8   13    7   109.500 105.577   0.253 F   0
    8   13    9   109.500 107.437   0.254 F   0
    8   13   10   109.500 108.094   0.249 F   0
    9   11    8   120.000 119.312   0.180 F   0
    9   15    8   120.000 119.457   0.245 F   0
    9   15   11   120.000 121.111   0.177 F   0
   10   14    8   145.000 106.814   0.087 F   0
   15   16    9   115.000 118.298   0.410 F   0
   15   19    9   115.000 119.447   0.334 F   0
   15   19   16   104.000 113.431   0.182 F   0
   16   17   15   109.500 114.856   0.307 F   0
   16   20   15   109.500 107.060   0.253 F   0
   16   20   17   109.500 110.090   0.252 F   0
   16   21   15   109.500 108.949   0.253 F   0
   16   21   17   109.500 109.668   0.252 F   0
   16   21   20   108.600 105.806   0.209 F   0
   17   18   16   120.000 121.050   0.178 F   0
   17   22   16   120.000 115.663   0.243 F   0
   17   22   18   120.000 123.264   0.177 F   0
   22   23   17   115.000 119.949   0.410 F   0
   22   26   17   115.000 121.882   0.334 F   0
   22   26   23   104.000 115.879   0.182 F   0
   23   24   22   109.500 111.442   0.307 F   0
   23   27   22   109.500 109.188   0.253 F   0
   23   27   24   109.500 112.670   0.251 F   0
   23   28   22   109.500 107.559   0.253 F   0
   23   28   24   109.500 108.209   0.251 F   0
   23   28   27   108.600 107.566   0.209 F   0
   24   25   23   120.000 117.926   0.178 F   0
   24   29   23   120.000 122.453   0.243 F   0
   24   29   25   120.000 119.618   0.176 F   0
   29   30   24   115.000 126.976   0.409 F   0
   29   33   24   115.000 118.397   0.334 F   0
   29   33   30   104.000 113.728   0.182 F   0
   30   31   29   109.500 111.791   0.307 F   0
   30   34   29   109.500 109.235   0.253 F   0
   30   34   31   109.500 110.822   0.251 F   0
   30   35   29   109.500 110.662   0.253 F   0
   30   35   31   109.500 107.899   0.251 F   0
   30   35   34   108.600 106.286   0.209 F   0
   31   32   30   120.000 119.329   0.178 F   0
   31   36   30   120.000 118.377   0.242 F   0
   31   36   32   120.000 122.293   0.176 F   0
   36   37   31   115.000 120.031   0.409 F   0
   36   40   31   115.000 121.149   0.333 F   0
   36   40   37   104.000 115.064   0.182 F   0
   37   38   36   109.500 110.351   0.307 F   0
   37   41   36   109.500 108.721   0.253 F   0
   37   41   38   109.500 111.538   0.251 F   0
   37   42   36   109.500 107.887   0.253 F   0
   37   42   38   109.500 109.428   0.251 F   0
   37   42   41   108.600 108.830   0.209 F   0
   38   39   37   120.000 117.984   0.177 F   0
   38   43   37   120.000 121.576   0.241 F   0
   38   43   39   120.000 120.428   0.174 F   0
   43   44   38   113.000 126.758   0.042 F   0
   43   45   38   113.000 119.087   0.211 F   0
   43   45   44   113.000 114.007   0.105 F   0
   44   46   43   120.000 110.188   0.204 F   0
   44   47   43   120.000 108.751   0.204 F   0
   44   47   46   120.000 107.942   0.167 F   0
 torsion atoms        nrot   rings    phi0    phi      FC
    7    1    8    3   2      0     180.000   9.668   0.639
    7    1   12    3   2      0     180.000 168.641   0.948
    8    7    9    1   3      0     180.000  58.723   0.024
    8    7    9   12   3      0     180.000 101.251   0.033
    8    7   10    1   3      0     180.000 174.359   0.026
    8    7   10   12   3      0     180.000  25.666   0.035
    8    7   13    1   3      0     180.000  56.055   0.035
    8    7   13   12   3      0     180.000 143.971   0.046
    9    8   11    7   3      0     180.000  64.201   0.075
    9    8   11   10   3      0     180.000  62.860   0.097
    9    8   11   13   3      0     180.000 177.751   0.131
    9    8   15    7   3      0     180.000 111.866   0.047
    9    8   15   10   3      0     180.000 121.073   0.061
    9    8   15   13   3      0     180.000   1.683   0.082
   10    8   14    7   1      0     180.000 179.053   0.143
   10    8   14    9   1      0     180.000  56.806   0.176
   10    8   14   13   1      0     180.000  62.207   0.251
   15    9   16    8   2      0     180.000 149.370   0.600
   15    9   16   11   2      0     180.000  26.625   0.813
   15    9   19    8   2      0     180.000   4.030   0.890
   15    9   19   11   2      0     180.000 171.965   1.207
   16   15   17    9   3      0     180.000 127.067   0.022
   16   15   17   19   3      0     180.000  85.599   0.032
   16   15   20    9   3      0     180.000   4.510   0.032
   16   15   20   19   3      0     180.000 151.844   0.045
   16   15   21    9   3      0     180.000 109.482   0.032
   16   15   21   19   3      0     180.000  37.852   0.045
   17   16   18   15   3      0     180.000  71.147   0.066
   17   16   18   20   3      0     180.000 167.943   0.115
   17   16   18   21   3      0     180.000  51.920   0.115
   17   16   22   15   3      0     180.000 110.534   0.041
   17   16   22   20   3      0     180.000  10.376   0.072
   17   16   22   21   3      0     180.000 126.398   0.072
   22   17   23   16   2      0     180.000 178.910   0.606
   22   17   23   18   2      0     180.000   0.633   0.821
   22   17   26   16   2      0     180.000  18.988   0.899
   22   17   26   18   2      0     180.000 162.734   1.218
   23   22   24   17   3      0     180.000 113.484   0.022
   23   22   24   26   3      0     180.000  49.654   0.032
   23   22   27   17   3      0     180.000 121.408   0.032
   23   22   27   26   3      0     180.000  75.453   0.045
   23   22   28   17   3      0     180.000   4.966   0.032
   23   22   28   26   3      0     180.000 168.105   0.045
   24   23   25   22   3      0     180.000  44.839   0.066
   24   23   25   27   3      0     180.000 167.982   0.115
   24   23   25   28   3      0     180.000  73.221   0.115
   24   23   29   22   3      0     180.000 135.823   0.041
   24   23   29   27   3      0     180.000  12.681   0.072
   24   23   29   28   3      0     180.000 106.116   0.072
   29   24   30   23   2      0     180.000   3.788   0.612
   29   24   30   25   2      0     180.000 175.538   0.830
   29   24   33   23   2      0     180.000 172.204   0.908
   29   24   33   25   2      0     180.000   7.123   1.231
   30   29   31   24   3      0     180.000 119.065   0.022
   30   29   31   33   3      0     180.000  49.809   0.032
   30   29   34   24   3      0     180.000 117.914   0.032
   30   29   34   33   3      0     180.000  73.211   0.045
   30   29   35   24   3      0     180.000   1.234   0.032
   30   29   35   33   3      0     180.000 170.108   0.045
   31   30   32   29   3      0     180.000  69.497   0.066
   31   30   32   34   3      0     180.000 168.388   0.115
   31   30   32   35   3      0     180.000  52.404   0.115
   31   30   36   29   3      0     180.000 110.062   0.041
   31   30   36   34   3      0     180.000  12.053   0.072
   31   30   36   35   3      0     180.000 128.037   0.072
   36   31   37   30   2      0     180.000 171.055   0.620
   36   31   37   32   2      0     180.000   8.490   0.840
   36   31   40   30   2      0     180.000  13.963   0.920
   36   31   40   32   2      0     180.000 165.582   1.246
   37   36   38   31   3      0     180.000 108.470   0.022
   37   36   38   40   3      0     180.000  49.953   0.032
   37   36   41   31   3      0     180.000 128.905   0.032
   37   36   41   40   3      0     180.000  72.672   0.045
   37   36   42   31   3      0     180.000  11.035   0.032
   37   36   42   40   3      0     180.000 169.458   0.045
   38   37   39   36   3      0     180.000  37.733   0.066
   38   37   39   41   3      0     180.000 158.691   0.115
   38   37   39   42   3      0     180.000  80.835   0.115
   38   37   43   36   3      0     180.000 143.551   0.041
   38   37   43   41   3      0     180.000  22.593   0.072
   38   37   43   42   3      0     180.000  97.881   0.072
   43   38   44   37   2      0     180.000   2.726   0.343
   43   38   44   39   2      0     180.000 178.588   0.465
   43   38   45   37   2      0     180.000 172.578   0.489
   43   38   45   39   2      0     180.000   6.107   0.662
   44   43   46   38   2      0     180.000  89.635   1.385
   44   43   46   45   2      0     180.000  94.856   1.974
   44   43   47   38   2      0     180.000  28.492   1.385
   44   43   47   45   2      0     180.000 147.017   1.974
 out-of-plane atoms          phi0    phi      FC
    7   12    1    8          0.000 -18.000   0.527
    9   11   15    8          0.000   3.487  23.813
   15   19    9   16          0.000  30.049   0.171
   17   18   22   16          0.000  -1.553  23.776
   22   26   17   23          0.000  15.444   0.147
   24   25   29   23          0.000  -0.568  23.962
   29   33   24   30          0.000   9.232   0.135
   31   32   36   30          0.000   0.400  24.122
   36   40   31   37          0.000  19.694   0.117
   38   39   43   37          0.000  -1.120  28.541
   43   45   38   44          0.000   3.760  -0.051
   44   46   47   43          0.000  55.473   0.552
          #tors  :   101
          #nmol  :   7
          #optfrag :   7

 GFN-FF setup done.

           ------------------------------------------------- 
          |                   G F N - F F                   |
          |          A general generic force-field          |
          |                  Version 1.0.3                  | 
           ------------------------------------------------- 
      * Solvation model:               ALPB
        Solvent                        water
        Parameter file                 internal GFN-FF/ALPB
        Dielectric constant                8.0200E+01
        Reference state                gsolv [1 M gas/solution]
        Free energy shift                  3.6494E-04 Eh       2.2900E-01 kcal/mol
        Temperature                        2.9815E+02 K
        Density                            1.0000E+00 kg/L
        Solvent mass                       1.8000E+01 g/mol
        Interaction kernel             P16
        Born radius scaling (c1)           1.5056E+00
        Born radii integrator          GBOBC
        Born offset                        0.0000E+00 a0       0.0000E+00 AA
        H-bond correction              true
        Ion screening                  false
        Surface tension                    1.0000E-05 Eh       1.5569E+01 dyn/cm
        Grid points                               230 per atom
          Number of HB bonds (bound hydrogen)     701
          Number of HB bonds (unbound hydrogen)   95
          Number of XB bonds                      0

 E+G (total)                   0 d,  0 h,  0 min,  0.001 sec
 distance/D3 list               ...        0 min,  0.000 sec (  0.419%)
 non bonded repulsion           ...        0 min,  0.000 sec (  2.287%)
 dCN                            ...        0 min,  0.000 sec (  5.168%)
 EEQ energy and q               ...        0 min,  0.000 sec (  5.797%)
 D3                             ...        0 min,  0.000 sec (  8.566%)
 EEQ gradient                   ...        0 min,  0.000 sec (  4.420%)
 bonds                          ...        0 min,  0.000 sec (  0.781%)
 bend and torsion               ...        0 min,  0.000 sec (  3.162%)
 bonded ATM                     ...        0 min,  0.000 sec (  1.269%)
 HB/XB (incl list setup)        ...        0 min,  0.000 sec ( 12.302%)
 GBSA                           ...        0 min,  0.001 sec ( 58.369%)

         :::::::::::::::::::::::::::::::::::::::::::::::::::::
         ::                     SUMMARY                     ::
         :::::::::::::::::::::::::::::::::::::::::::::::::::::
         :: total energy              -8.151636822951 Eh    ::
         :: total w/o Gsolv           -8.089086963472 Eh    ::
         :: total w/o Gsasa/hb        -8.139497958290 Eh    ::
         :: gradient norm              0.193797051654 Eh/a0 ::
         ::.................................................::
         :: bond energy               -8.167956368269 Eh    ::
         :: angle energy               0.036873581555 Eh    ::
         :: torsion energy             0.025347920261 Eh    ::
         :: repulsion energy           0.502459717774 Eh    ::
         :: electrostat energy        -0.440663993201 Eh    ::
         :: dispersion energy         -0.032619294607 Eh    ::
         :: HB energy                 -0.000844009292 Eh    ::
         :: XB energy                  0.000000000000 Eh    ::
         :: bonded atm energy         -0.011684517693 Eh    ::
         :: external energy            0.000000000000 Eh    ::
         :: -> Gsolv                  -0.062549859480 Eh    ::
         ::    -> Gborn               -0.050410994818 Eh    ::
         ::    -> Gsasa                0.009429308917 Eh    ::
         ::    -> Ghb                 -0.021933112833 Eh    ::
         ::    -> Gshift               0.000364939255 Eh    ::
         :: add. restraining           0.000000000000 Eh    ::
         :: total charge              -0.000000000000 e     ::
         ::.................................................::
         :: atomisation energy         0.000000000000 Eh    ::
         :::::::::::::::::::::::::::::::::::::::::::::::::::::

      ----------------------------------------------------------- 
     |                   =====================                   |
     |                        A N C O P T                        |
     |                   =====================                   |
     |               Approximate Normal Coordinate               |
     |                Rational Function Optimizer                |
      ----------------------------------------------------------- 

          ...................................................
          :                      SETUP                      :
          :.................................................:
          :   optimization level         verytight          :
          :   max. optcycles                    10          :
          :   ANC micro-cycles                  10          :
          :   degrees of freedom               135          :
          :.................................................:
          :   RF solver                   davidson          :
          :   write xtbopt.log                true          :
          :   linear?                        false          :
          :   energy convergence         0.1000000E-06 Eh   :
          :   grad. convergence          0.2000000E-03 Eh/α :
          :   maxmium RF displ.          1.0000000          :
          :   Hlow (freq-cutoff)         0.1000000E-01      :
          :   Hmax (freq-cutoff)         5.0000000          :
          :   S6 in model hess.         20.0000000          :
          ...................................................

generating ANC from model Hessian ...
Using GFN-FF Lindh-Hessian
 Shifting diagonal of input Hessian by    0.0000000000000000     
 Lowest  eigenvalues of input Hessian
    0.000000    0.000000    0.000000    0.000000    0.000000    0.000000
    0.017741    0.024568    0.025453    0.032183    0.048210    0.065272
    0.076705    0.085890    0.096919    0.103630    0.109781    0.114426
 Highest eigenvalues
    3.369957    3.707303    3.732860    4.005694    4.195039    4.321996


........................................................................
.............................. CYCLE    1 ..............................
........................................................................
     iter. time                 ...        0 min,  0.001 sec
 * total energy  :    -8.1516368 Eh     change        0.0000000E+00 Eh
   gradient norm :     0.1937970 Eh/α   predicted     0.0000000E+00 (    NaN%)
   displ. norm   :     0.1464515 α      lambda       -0.1876783E-01
   maximum displ.:     0.0607620 α      in ANC's #30, #21, #39, ...

........................................................................
.............................. CYCLE    2 ..............................
........................................................................
     iter. time                 ...        0 min,  0.001 sec
 * total energy  :    -8.1643655 Eh     change       -0.1272870E-01 Eh
   gradient norm :     0.0729621 Eh/α   predicted    -0.9633880E-02 ( -24.31%)
   displ. norm   :     0.0939865 α      lambda       -0.4604436E-02
   maximum displ.:     0.0434451 α      in ANC's #30, #39, #26, ...

........................................................................
.............................. CYCLE    3 ..............................
........................................................................
     iter. time                 ...        0 min,  0.001 sec
 * total energy  :    -8.1669116 Eh     change       -0.2546074E-02 Eh
   gradient norm :     0.0188742 Eh/α   predicted    -0.2322616E-02 (  -8.78%)
   displ. norm   :     0.0255507 α      lambda       -0.2576543E-03
   maximum displ.:     0.0100409 α      in ANC's #30, #45, #13, ...

........................................................................
.............................. CYCLE    4 ..............................
........................................................................
     iter. time                 ...        0 min,  0.001 sec
 * total energy  :    -8.1670932 Eh     change       -0.1815600E-03 Eh
   gradient norm :     0.0096397 Eh/α   predicted    -0.1354549E-03 ( -25.39%)
   displ. norm   :     0.0158686 α      lambda       -0.8348023E-04
   maximum displ.:     0.0064014 α      in ANC's #1, #45, #13, ...

........................................................................
.............................. CYCLE    5 ..............................
........................................................................
     iter. time                 ...        0 min,  0.001 sec
 * total energy  :    -8.1671426 Eh     change       -0.4948108E-04 Eh
   gradient norm :     0.0031080 Eh/α   predicted    -0.4185336E-04 ( -15.42%)
   displ. norm   :     0.0066379 α      lambda       -0.1060934E-04
   maximum displ.:     0.0037191 α      in ANC's #1, #45, #2, ...

........................................................................
.............................. CYCLE    6 ..............................
........................................................................
     iter. time                 ...        0 min,  0.001 sec
 * total energy  :    -8.1671500 Eh     change       -0.7396195E-05 Eh
   gradient norm :     0.0014105 Eh/α   predicted    -0.5508926E-05 ( -25.52%)
   displ. norm   :     0.0081888 α      lambda       -0.3796371E-05
   maximum displ.:     0.0052282 α      in ANC's #1, #45, #30, ...

........................................................................
.............................. CYCLE    7 ..............................
........................................................................
     iter. time                 ...        0 min,  0.001 sec
 * total energy  :    -8.1671526 Eh     change       -0.2516423E-05 Eh
   gradient norm :     0.0011154 Eh/α   predicted    -0.1925105E-05 ( -23.50%)
   displ. norm   :     0.0022741 α      lambda       -0.4675477E-06
   maximum displ.:     0.0014431 α      in ANC's #1, #3, #4, ...

........................................................................
.............................. CYCLE    8 ..............................
........................................................................
     iter. time                 ...        0 min,  0.001 sec
 * total energy  :    -8.1671533 Eh     change       -0.7337011E-06 Eh
   gradient norm :     0.0004813 Eh/α   predicted    -0.3416689E-06 ( -53.43%)
   displ. norm   :     0.0049826 α      lambda       -0.4779422E-06
   maximum displ.:     0.0038033 α      in ANC's #1, #3, #4, ...

........................................................................
.............................. CYCLE    9 ..............................
........................................................................
     iter. time                 ...        0 min,  0.001 sec
 * total energy  :    -8.1671537 Eh     change       -0.4607218E-06 Eh
   gradient norm :     0.0002497 Eh/α   predicted    -0.2446264E-06 ( -46.90%)
   displ. norm   :     0.0038914 α      lambda       -0.1486478E-06
   maximum displ.:     0.0029356 α      in ANC's #1, #3, #4, ...

........................................................................
.............................. CYCLE   10 ..............................
........................................................................
     iter. time                 ...        0 min,  0.001 sec
 * total energy  :    -8.1671539 Eh     change       -0.1844046E-06 Eh
   gradient norm :     0.0002991 Eh/α   predicted    -0.7727182E-07 ( -58.10%)
   displ. norm   :     0.0089199 α      lambda       -0.2949692E-06
   maximum displ.:     0.0066645 α      in ANC's #1, #3, #4, ...

   *** FAILED TO CONVERGE GEOMETRY OPTIMIZATION IN 10 ITERATIONS ***


 ANCopt (total)                0 d,  0 h,  0 min,  0.011 sec
 optimizer setup                ...        0 min,  0.000 sec (  0.791%)
 model hessian                  ...        0 min,  0.000 sec (  3.473%)
 ANC generation                 ...        0 min,  0.001 sec (  9.800%)
 coordinate transformation      ...        0 min,  0.000 sec (  0.428%)
 single point calculation       ...        0 min,  0.008 sec ( 76.341%)
 optimization log               ...        0 min,  0.001 sec (  4.789%)
 hessian update                 ...        0 min,  0.000 sec (  0.630%)
 rational function              ...        0 min,  0.000 sec (  2.215%)

================
 final structure:
================
ATOM      1  C   ALA A   7     -10.151 -13.216   7.637  1.00  0.00           C  
ATOM      2  CB  ALA A   7      -8.596 -14.105   9.455  1.00  0.00           C  
ATOM      3  O   ALA A   7      -9.995 -14.118   6.838  1.00  0.00           O  
ATOM      4  HB1 ALA A   7      -8.407 -14.977   8.854  1.00  0.00           H  
ATOM      5  HB2 ALA A   7      -7.865 -13.354   9.217  1.00  0.00           H  
ATOM      6  HB3 ALA A   7      -8.539 -14.367  10.497  1.00  0.00           H  
ATOM      7  N   VAL A   8     -10.372 -11.915   7.339  1.00  0.00           N  
ATOM      8  CA  VAL A   8     -10.293 -11.452   5.955  1.00  0.00           C  
ATOM      9  C   VAL A   8      -8.886 -11.751   5.449  1.00  0.00           C  
ATOM     10  CB  VAL A   8     -10.752 -10.048   5.717  1.00  0.00           C  
ATOM     11  O   VAL A   8      -7.941 -11.185   5.957  1.00  0.00           O  
ATOM     12  H   VAL A   8     -10.292 -11.181   8.048  1.00  0.00           H  
ATOM     13  HA  VAL A   8     -10.985 -12.111   5.394  1.00  0.00           H  
ATOM     14  HB  VAL A   8     -10.603  -9.737   4.724  1.00  0.00           H  
ATOM     15  N   GLY A   9      -8.701 -12.719   4.468  1.00  0.00           N  
ATOM     16  CA  GLY A   9      -7.451 -13.464   4.461  1.00  0.00           C  
ATOM     17  C   GLY A   9      -6.739 -13.458   3.165  1.00  0.00           C  
ATOM     18  O   GLY A   9      -7.163 -14.082   2.216  1.00  0.00           O  
ATOM     19  H   GLY A   9      -9.500 -13.268   4.144  1.00  0.00           H  
ATOM     20  HA2 GLY A   9      -6.813 -13.031   5.239  1.00  0.00           H  
ATOM     21  HA3 GLY A   9      -7.647 -14.499   4.768  1.00  0.00           H  
ATOM     22  N   GLY A  10      -5.570 -12.739   3.131  1.00  0.00           N  
ATOM     23  CA  GLY A  10      -4.800 -12.697   1.932  1.00  0.00           C  
ATOM     24  C   GLY A  10      -4.767 -11.312   1.346  1.00  0.00           C  
ATOM     25  O   GLY A  10      -5.814 -10.701   1.282  1.00  0.00           O  
ATOM     26  H   GLY A  10      -5.361 -12.018   3.825  1.00  0.00           H  
ATOM     27  HA2 GLY A  10      -3.802 -13.083   2.150  1.00  0.00           H  
ATOM     28  HA3 GLY A  10      -5.267 -13.379   1.212  1.00  0.00           H  
ATOM     29  N   GLY A  11      -3.604 -10.729   0.875  1.00  0.00           N  
ATOM     30  CA  GLY A  11      -2.287 -11.354   0.783  1.00  0.00           C  
ATOM     31  C   GLY A  11      -1.801 -11.407  -0.632  1.00  0.00           C  
ATOM     32  O   GLY A  11      -2.344 -12.154  -1.417  1.00  0.00           O  
ATOM     33  H   GLY A  11      -3.673  -9.840   0.386  1.00  0.00           H  
ATOM     34  HA2 GLY A  11      -1.585 -10.799   1.413  1.00  0.00           H  
ATOM     35  HA3 GLY A  11      -2.316 -12.373   1.171  1.00  0.00           H  
ATOM     36  N   GLY A  12      -0.748 -10.598  -0.997  1.00  0.00           N  
ATOM     37  CA  GLY A  12      -0.376 -10.470  -2.388  1.00  0.00           C  
ATOM     38  C   GLY A  12      -0.767  -9.114  -2.928  1.00  0.00           C  
ATOM     39  O   GLY A  12      -1.798  -8.624  -2.542  1.00  0.00           O  
ATOM     40  H   GLY A  12      -0.443  -9.828  -0.400  1.00  0.00           H  
ATOM     41  HA2 GLY A  12       0.697 -10.660  -2.480  1.00  0.00           H  
ATOM     42  HA3 GLY A  12      -0.906 -11.249  -2.944  1.00  0.00           H  
ATOM     43  N   GLY A  13       0.066  -8.474  -3.853  1.00  0.00           N  
ATOM     44  CA  GLY A  13       1.297  -8.870  -4.355  1.00  0.00           C  
ATOM     45  H   GLY A  13      -0.286  -7.579  -4.233  1.00  0.00           H  
ATOM     46  HA2 GLY A  13       2.128  -8.536  -3.740  1.00  0.00           H  
ATOM     47  HA3 GLY A  13       1.351  -9.969  -4.352  1.00  0.00           H  
END

 Bond Distances (Angstroems)
 ---------------------------
C1-O3=1.2144         C1-N7=1.3527         C2-H4=1.0759         C2-H5=1.0751         C2-H6=1.0758         O3-C1=1.2144         
H4-C2=1.0759         H5-C2=1.0751         H6-C2=1.0758         N7-C1=1.3527         N7-C8=1.4619         N7-H12=1.0235        
C8-N7=1.4619         C8-C9=1.5250         C8-C10=1.4971        C8-H13=1.1074        C9-C8=1.5250         C9-O11=1.2131        
C9-N15=1.3904        C10-C8=1.4971        C10-H14=1.0511       O11-C9=1.2131        H12-N7=1.0235        H13-C8=1.1074        
H14-C10=1.0511       N15-C9=1.3904        N15-C16=1.4553       N15-H19=1.0225       C16-N15=1.4553       C16-C17=1.4791       
C16-H20=1.0957       C16-H21=1.0974       C17-C16=1.4791       C17-O18=1.2125       C17-N22=1.3728       O18-C17=1.2125       
H19-N15=1.0225       H20-C16=1.0957       H21-C16=1.0974       N22-C17=1.3728       N22-C23=1.4260       N22-H26=1.0225       
C23-N22=1.4260       C23-C24=1.5041       C23-H27=1.0919       C23-H28=1.0964       C24-C23=1.5041       C24-O25=1.2139       
C24-N29=1.3842       O25-C24=1.2139       H26-N22=1.0225       H27-C23=1.0919       H28-C23=1.0964       N29-C24=1.3842       
N29-C30=1.4604       N29-H33=1.0168       C30-N29=1.4604       C30-C31=1.4974       C30-H34=1.0944       C30-H35=1.0908       
C31-C30=1.4974       C31-O32=1.2120       C31-N36=1.3769       O32-C31=1.2120       H33-N29=1.0168       H34-C30=1.0944       
H35-C30=1.0908       N36-C31=1.3769       N36-C37=1.4453       N36-H40=1.0211       C37-N36=1.4453       C37-C38=1.5110       
C37-H41=1.0935       C37-H42=1.0936       C38-C37=1.5110       C38-O39=1.2045       C38-N43=1.3999       O39-C38=1.2045       
H40-N36=1.0211       H41-C37=1.0935       H42-C37=1.0936       N43-C38=1.3999       N43-C44=1.3879       N43-H45=1.0339       
C44-N43=1.3879       C44-H46=1.0863       C44-H47=1.0998       H45-N43=1.0339       H46-C44=1.0863       H47-C44=1.0998       
 C  H  Rav=1.0884 sigma=0.0134  Rmin=1.0511  Rmax=1.1074    15
 C  C  Rav=1.5023 sigma=0.0141  Rmin=1.4791  Rmax=1.5250     6
 N  H  Rav=1.0234 sigma=0.0052  Rmin=1.0168  Rmax=1.0339     6
 N  C  Rav=1.4095 sigma=0.0367  Rmin=1.3527  Rmax=1.4619    12
 O  C  Rav=1.2117 sigma=0.0033  Rmin=1.2045  Rmax=1.2144     6

 selected bond angles (degree)
 --------------------
N7-C1-O3=126.15                H5-C2-H4=108.83                H6-C2-H4=109.62                H6-C2-H5=110.41                
C8-N7-C1=120.28                H12-N7-C1=121.66               H12-N7-C8=115.09               C9-C8-N7=107.57                
C10-C8-N7=115.54               C10-C8-C9=114.48               H13-C8-N7=104.92               H13-C8-C9=106.98               
H13-C8-C10=106.59              O11-C9-C8=119.22               N15-C9-C8=119.55               N15-C9-O11=121.14              
H14-C10-C8=112.57              

 selected dihedral angles (degree)
 ---------------------------------
C8-N7-C1-O3=353.11            H12-N7-C1-O3=193.55           C9-C8-N7-C1=300.55            C9-C8-N7-H12=101.38           
C10-C8-N7-C1=171.27           C10-C8-N7-H12=332.10          H13-C8-N7-C1= 54.21           H13-C8-N7-H12=215.05          
O11-C9-C8-N7=295.16           O11-C9-C8-C10= 65.04          O11-C9-C8-H13=182.88          N15-C9-C8-N7=111.65           
N15-C9-C8-C10=241.53          N15-C9-C8-H13=359.37          H14-C10-C8-N7=175.37          H14-C10-C8-C9= 49.55          
H14-C10-C8-H13=291.49         

 CMA Distance (Angstroems)
 ---------------------------
R(CMA):  8.6321
           -------------------------------------------------
          |                Final Singlepoint                |
           -------------------------------------------------
         :::::::::::::::::::::::::::::::::::::::::::::::::::::
         ::                     SUMMARY                     ::
         :::::::::::::::::::::::::::::::::::::::::::::::::::::
         :: total energy              -8.167154248447 Eh    ::
         :: total w/o Gsolv           -8.104463071018 Eh    ::
         :: total w/o Gsasa/hb        -8.154772405053 Eh    ::
         :: gradient norm              0.000343957724 Eh/a0 ::
         ::.................................................::
         :: bond energy               -8.198962818466 Eh    ::
         :: angle energy               0.035817560906 Eh    ::
         :: torsion energy             0.027901436729 Eh    ::
         :: repulsion energy           0.510765933971 Eh    ::
         :: electrostat energy        -0.442621878447 Eh    ::
         :: dispersion energy         -0.032629198332 Eh    ::
         :: HB energy                 -0.000851926127 Eh    ::
         :: XB energy                  0.000000000000 Eh    ::
         :: bonded atm energy         -0.011397500047 Eh    ::
         :: external energy            0.000000000000 Eh    ::
         :: -> Gsolv                  -0.062691177428 Eh    ::
         ::    -> Gborn               -0.050309334035 Eh    ::
         ::    -> Gsasa                0.009454577991 Eh    ::
         ::    -> Ghb                 -0.022201360640 Eh    ::
         ::    -> Gshift               0.000364939255 Eh    ::
         :: add. restraining           0.007515318796 Eh    ::
         :: total charge               0.000000000000 e     ::
         ::.................................................::
         :: atomisation energy         0.000000000000 Eh    ::
         :::::::::::::::::::::::::::::::::::::::::::::::::::::

           -------------------------------------------------
          |                Property Printout                |
           -------------------------------------------------
           -------------------------------------------------
          |                Geometry Summary                 |
           -------------------------------------------------

      molecular mass/u    :      369.3537071
   center of mass at/Å    :       -5.3721272     -11.5792216       2.2518500
  moments of inertia/u·Å² :        0.8464234E+03   0.1101909E+05   0.1133042E+05
rotational constants/cm⁻¹ :        0.1991631E-01   0.1529857E-02   0.1487821E-02

 * 38 selected distances

     #   Z          #   Z                                           value/Å
     2   6  C       4   1  H                                      1.0758946
     2   6  C       5   1  H                                      1.0751070
     2   6  C       6   1  H                                      1.0758325
     1   6  C       7   7  N                                      1.3527199
     7   7  N       8   6  C                                      1.4619385
     9   6  C      11   8  O                                      1.2131170
     7   7  N      12   1  H                                      1.0235488
     8   6  C      13   1  H                                      1.1073902
     9   6  C      15   7  N                                      1.3904257
    15   7  N      16   6  C                                      1.4552799
    16   6  C      17   6  C                                      1.4790871 (max)
    17   6  C      18   8  O                                      1.2125014
    15   7  N      19   1  H                                      1.0225433
    16   6  C      20   1  H                                      1.0957431
    16   6  C      21   1  H                                      1.0974002
    17   6  C      22   7  N                                      1.3727756
    22   7  N      23   6  C                                      1.4259713
    24   6  C      25   8  O                                      1.2139113
    22   7  N      26   1  H                                      1.0224947
    23   6  C      27   1  H                                      1.0919091
    23   6  C      28   1  H                                      1.0963596
    24   6  C      29   7  N                                      1.3841657
    29   7  N      30   6  C                                      1.4604099
    31   6  C      32   8  O                                      1.2120305
    29   7  N      33   1  H                                      1.0168483 (min)
    30   6  C      34   1  H                                      1.0944351
    30   6  C      35   1  H                                      1.0908370
    31   6  C      36   7  N                                      1.3769076
    36   7  N      37   6  C                                      1.4452697
    38   6  C      39   8  O                                      1.2045244
    36   7  N      40   1  H                                      1.0211055
    37   6  C      41   1  H                                      1.0935441
    37   6  C      42   1  H                                      1.0935798
    38   6  C      43   7  N                                      1.3998509
    43   7  N      44   6  C                                      1.3878828
    43   7  N      45   1  H                                      1.0339103
    44   6  C      46   1  H                                      1.0863334
    44   6  C      47   1  H                                      1.0997730

 * 5 distinct bonds (by element types)

   Z      Z             #   av. dist./Å        max./Å        min./Å
   1 H    6 C          14     1.0910099     1.1073902     1.0751070
   6 C    6 C           1     1.4790871     1.4790871     1.4790871
   1 H    7 N           6     1.0234085     1.0339103     1.0168483
   6 C    7 N          12     1.4094665     1.4619385     1.3527199
   6 C    8 O           5     1.2112169     1.2139113     1.2045244


optimized geometry written to: xtbopt.pdb


           -------------------------------------------------
          | TOTAL ENERGY               -8.167154248447 Eh   |
          | GRADIENT NORM               0.000343957724 Eh/α |
           -------------------------------------------------
########################################################################
[WARNING] Runtime exception occurred
-1- gfnff_setup: Could not read topology file.
########################################################################

------------------------------------------------------------------------
 unit  open   action     filename
   10 false : read       xtb_settings.inp
   10 false : read       substructure_27.pdb
   10 false : read       xtb_settings.inp
   10 false : written    gfnff_topo
   10 false : written    gfnff_adjacency
   10 false : written    gfnff_charges
   10 false : deleted    .xtboptok
   10 false : replaced   xtbopt.log
   11 false : created    .xtboptok
   11 false : replaced   gfnff_charges
   10 false : replaced   xtbopt.pdb

------------------------------------------------------------------------
 * finished run on 2025/05/27 at 09:37:43.625     
------------------------------------------------------------------------
 total:
 * wall-time:     0 d,  0 h,  0 min,  0.017 sec
 *  cpu-time:     0 d,  0 h,  0 min,  0.017 sec
 * ratio c/w:     1.000 speedup
 SCF:
 * wall-time:     0 d,  0 h,  0 min,  0.001 sec
 *  cpu-time:     0 d,  0 h,  0 min,  0.001 sec
 * ratio c/w:     1.000 speedup
 ANC optimizer:
 * wall-time:     0 d,  0 h,  0 min,  0.012 sec
 *  cpu-time:     0 d,  0 h,  0 min,  0.012 sec
 * ratio c/w:     1.000 speedup

