      -----------------------------------------------------------      
     |                   =====================                   |     
     |                           x T B                           |     
     |                   =====================                   |     
     |                         S. Grimme                         |     
     |          Mulliken Center for Theoretical Chemistry        |     
     |                    University of Bonn                     |     
      -----------------------------------------------------------      

   * xtb version 6.6.1 (8d0f1dd) compiled by 'conda@1efc2f54142f' on 2023-08-01

   xtb is free software: you can redistribute it and/or modify it under
   the terms of the GNU Lesser General Public License as published by
   the Free Software Foundation, either version 3 of the License, or
   (at your option) any later version.
   
   xtb is distributed in the hope that it will be useful,
   but WITHOUT ANY WARRANTY; without even the implied warranty of
   MERCHANTABILITY or FITNESS FOR A PARTICULAR PURPOSE.  See the
   GNU Lesser General Public License for more details.
   
   Cite this work as:
   * C. Bannwarth, E. Caldeweyher, S. Ehlert, A. Hansen, P. Pracht,
     J. Seibert, S. Spicher, S. Grimme, WIREs Comput. Mol. Sci., 2020, 11,
     e01493. DOI: 10.1002/wcms.1493
   
   for GFN2-xTB:
   * C. Bannwarth, S. Ehlert and S. Grimme., J. Chem. Theory Comput., 2019,
     15, 1652-1671. DOI: 10.1021/acs.jctc.8b01176
   for GFN1-xTB:
   * S. Grimme, C. Bannwarth, P. Shushkov, J. Chem. Theory Comput., 2017,
     13, 1989-2009. DOI: 10.1021/acs.jctc.7b00118
   for GFN0-xTB:
   * P. Pracht, E. Caldeweyher, S. Ehlert, S. Grimme, ChemRxiv, 2019, preprint.
     DOI: 10.26434/chemrxiv.8326202.v1
   for GFN-FF:
   * S. Spicher and S. Grimme, Angew. Chem. Int. Ed., 2020, 59, 15665-15673.
     DOI: 10.1002/anie.202004239
   
   for ALPB and GBSA implicit solvation:
   * S. Ehlert, M. Stahn, S. Spicher, S. Grimme, J. Chem. Theory Comput.,
     2021, 17, 4250-4261. DOI: 10.1021/acs.jctc.1c00471
   
   for DFT-D4:
   * E. Caldeweyher, C. Bannwarth and S. Grimme, J. Chem. Phys., 2017,
     147, 034112. DOI: 10.1063/1.4993215
   * E. Caldeweyher, S. Ehlert, A. Hansen, H. Neugebauer, S. Spicher,
     C. Bannwarth and S. Grimme, J. Chem. Phys., 2019, 150, 154122.
     DOI: 10.1063/1.5090222
   * E. Caldeweyher, J.-M. Mewes, S. Ehlert and S. Grimme, Phys. Chem. Chem. Phys.
     2020, 22, 8499-8512. DOI: 10.1039/D0CP00502A
   
   for sTDA-xTB:
   * S. Grimme and C. Bannwarth, J. Chem. Phys., 2016, 145, 054103.
     DOI: 10.1063/1.4959605
   
   in the mass-spec context:
   * V. Asgeirsson, C. Bauer and S. Grimme, Chem. Sci., 2017, 8, 4879.
     DOI: 10.1039/c7sc00601b
   * J. Koopman and S. Grimme, ACS Omega 2019, 4, 12, 15120-15133.
     DOI: 10.1021/acsomega.9b02011
   
   for metadynamics refer to:
   * S. Grimme, J. Chem. Theory Comput., 2019, 155, 2847-2862
     DOI: 10.1021/acs.jctc.9b00143
   
   for SPH calculations refer to:
   * S. Spicher and S. Grimme, J. Chem. Theory Comput., 2021, 17, 1701-1714
     DOI: 10.1021/acs.jctc.0c01306
   
   with help from (in alphabetical order)
   P. Atkinson, C. Bannwarth, F. Bohle, G. Brandenburg, E. Caldeweyher
   M. Checinski, S. Dohm, S. Ehlert, S. Ehrlich, I. Gerasimov, C. Hölzer
   A. Katbashev, J. Koopman, C. Lavigne, S. Lehtola, F. März, M. Müller,
   F. Musil, H. Neugebauer, J. Pisarek, C. Plett, P. Pracht, F. Pultar,
   J. Seibert, P. Shushkov, S. Spicher, M. Stahn, M. Steiner, T. Strunk,
   J. Stückrath, T. Rose, and J. Unsleber
   
 * started run on 2025/05/27 at 09:37:46.274     

           -------------------------------------------------
          |                Calculation Setup                |
           -------------------------------------------------

          program call               : xtb substructure_33.pdb --gfnff --input xtb_settings.inp --opt vtight --alpb water --verbose
          coordinate file            : substructure_33.pdb
          xtbhome directory          : /home/dargen3
          path for xtb               : /home/dargen3
          xcontrol input file        : xtb_settings.inp
          omp threads                :                     1

$$$$$$$$$$$$$$$$$$$$$$$$$$$$$$$$$$$$$$$$$$$$$$$$$$$$$$$$$$$$$$$$$$$$$$$$
 CONSTRAINTS & SCANS: DEBUG SECTION
$$$$$$$$$$$$$$$$$$$$$$$$$$$$$$$$$$$$$$$$$$$$$$$$$$$$$$$$$$$$$$$$$$$$$$$$
   ID    Z sym.   atoms
    1    6  C     1, 2, 8-10, 16, 17, 23, 24, 30, 31, 37, 38, 44
    2    8  O     3, 11, 18, 25, 32, 39
    3    1  H     4-6, 12-14, 19-21, 26-28, 33-35, 40-42, 45-47
    4    7  N     7, 15, 22, 29, 36, 43
> constrain
-> atoms: 1, 2, 3, 4, 5, 6, 7, 8, 9, 10, 11, 12, 13, 14, 15, 16, 17, 18, 19, 20, 21, 23, 29, 30, 31, 32, 33, 34, 35, 36, 37, 38, 39, 40, 41, 42, 43, 44, 45, 46, 47
--> 1: 1
--> 2: 2
--> 3: 3
--> 4: 4
--> 5: 5
--> 6: 6
--> 7: 7
--> 8: 8
--> 9: 9
--> 10: 10
--> 11: 11
--> 12: 12
--> 13: 13
--> 14: 14
--> 15: 15
--> 16: 16
--> 17: 17
--> 18: 18
--> 19: 19
--> 20: 20
--> 21: 21
--> 22: 23
--> 23: 29
--> 24: 30
--> 25: 31
--> 26: 32
--> 27: 33
--> 28: 34
--> 29: 35
--> 30: 36
--> 31: 37
--> 32: 38
--> 33: 39
--> 34: 40
--> 35: 41
--> 36: 42
--> 37: 43
--> 38: 44
--> 39: 45
--> 40: 46
--> 41: 47
-> force constant=1.0
$$$$$$$$$$$$$$$$$$$$$$$$$$$$$$$$$$$$$$$$$$$$$$$$$$$$$$$$$$$$$$$$$$$$$$$$

molecular fragmentation (1/2 indicates fragments):
12122211111111111111111111111111111111111111111
# atoms in fragment 1/2:    43     4
 fragment masses (1/2) :      354.32       15.03
CMA distance (Bohr)    :  16.311
constraining FC (au)   :  1.0000
           -------------------------------------------------
          |                   Constraints                   |
           -------------------------------------------------

 * 41 constrained atom positions
   positions refering to input geometry

     #   Z                                   position/Å      displ./Å
     1   6 C    -10.1320009   -13.2310012     7.6560007     0.0000000
     2   6 C     -8.6210008   -14.1000013     9.4440009     0.0000000
     3   8 O     -9.9990009   -14.1080013     6.8290006     0.0000000
     4   1 H     -8.4050008   -14.9860014     8.8480008     0.0000000
     5   1 H     -7.8600007   -13.3540012     9.2140009     0.0000000
     6   1 H     -8.5320008   -14.3710013    10.4960010     0.0000000
     7   7 N    -10.3830010   -11.9150011     7.3340007     0.0000000
     8   6 C    -10.2890010   -11.4620011     5.9580006     0.0000000
     9   6 C     -8.8810008   -11.7500011     5.4610005     0.0000000
    10   6 C    -10.7190010    -9.9960009     5.7580005     0.0000000
    11   8 O     -7.9390007   -11.2010010     5.9950006     0.0000000
    12   1 H    -10.3110010   -11.1850010     8.0420007     0.0000000
    13   1 H    -10.9800010   -12.1050011     5.3860005     0.0000000
    14   1 H    -10.6220010    -9.7780009     4.6800004     0.0000000
    15   7 N     -8.6890008   -12.6960012     4.4600004     0.0000000
    16   6 C     -7.4510007   -13.4620012     4.4550004     0.0000000
    17   6 C     -6.7310006   -13.4710012     3.1690003     0.0000000
    18   8 O     -7.1340007   -14.1270013     2.2310002     0.0000000
    19   1 H     -9.4890009   -13.2230012     4.1060004     0.0000000
    20   1 H     -6.8100006   -13.0420012     5.2420005     0.0000000
    21   1 H     -7.6690007   -14.4950013     4.7650004     0.0000000
    23   6 C     -4.7940004   -12.6990012     1.9410002     0.0000000
    29   7 N     -3.6100003   -10.7370010     0.8500001     0.0000000
    30   6 C     -2.2890002   -11.3470011     0.7820001     0.0000000
    31   6 C     -1.7820002   -11.4170011    -0.6260001     0.0000000
    32   8 O     -2.2910002   -12.1980011    -1.4010001     0.0000000
    33   1 H     -3.6830003    -9.8600009     0.3390000     0.0000000
    34   1 H     -1.5990001   -10.7820010     1.4160001     0.0000000
    35   1 H     -2.3120002   -12.3670011     1.1840001     0.0000000
    36   7 N     -0.7550001   -10.5790010    -0.9960001     0.0000000
    37   6 C     -0.3730000   -10.4770010    -2.3880002     0.0000000
    38   6 C     -0.7650001    -9.1240008    -2.9410003     0.0000000
    39   8 O     -1.8190002    -8.6450008    -2.5780002     0.0000000
    40   1 H     -0.4860000    -9.7850009    -0.4150000     0.0000000
    41   1 H      0.7010001   -10.6450010    -2.4670002     0.0000000
    42   1 H     -0.8940001   -11.2580010    -2.9370003     0.0000000
    43   7 N      0.0290000    -8.4560008    -3.8550004     0.0000000
    44   6 C      1.3240001    -8.8870008    -4.3620004     0.0000000
    45   1 H     -0.3230000    -7.6060007    -4.2890004     0.0000000
    46   1 H      2.1140002    -8.5120008    -3.7330003     0.0000000
    47   1 H      1.3640001    -9.9930009    -4.3410004     0.0000000

     applying 820 atom pairwise harmonic potentials
       applied force constant per pair:     0.0250000
     effective force constant per atom:     1.0000000
         constraining energy/grad norm:     0.0000000     0.0000000

     total constraint energy/grad norm:     0.0000000     0.0000000

          charge from pdb residues: 0

          entering GFN-FF setup routine... 47

          ==================== Thresholds ====================
          CN  :   150.00000
          rep :   500.00000
          disp:  2500.00000
          HB1 :   250.00000
          HB2 :   450.00000

          Pauling EN used:
          Z : 1  EN :  2.20
          Z : 6  EN :  2.55
          Z : 7  EN :  3.04
          Z : 8  EN :  3.44
          electric field strengths (au): 0.000

           ------------------------------------------------- 
          |           Force Field Initialization            |
           ------------------------------------------------- 

          distances ...
          ----------------------------------------
          generating topology and atomic info file ...
          pair mat ...
          computing topology distances matrix with Floyd-Warshall algo ...
          making topology EEQ charges ...
          #fragments for EEQ constrain from pdb file: 7
          ----------------------------------------
          generating topology and atomic info file ...
          pair mat ...
          computing topology distances matrix with Floyd-Warshall algo ...
          making topology EEQ charges ...
          #fragments for EEQ constrain from pdb file: 7
          rings ...
          # BATM   348
          # H in HB   21
          doing iterative Hueckel for 8 subsystem(s) ...
          iterative Hueckel run to get P ...
Hueckel system :  1 charge :   0 ndim/Nel :    3    3   eps(HOMO/LUMO)   -0.975876   -0.975876
Hueckel system :  3 charge :   0 ndim/Nel :    3    4   eps(HOMO/LUMO)   -0.916490   -0.916490
Hueckel system :  5 charge :   0 ndim/Nel :    3    4   eps(HOMO/LUMO)   -0.913323   -0.913323
Hueckel system :  6 charge :   0 ndim/Nel :    3    4   eps(HOMO/LUMO)   -0.912140   -0.912140
Hueckel system :  7 charge :   0 ndim/Nel :    3    4   eps(HOMO/LUMO)   -0.910058   -0.910058
Hueckel system :  8 charge :   0 ndim/Nel :    4    5   eps(HOMO/LUMO)    1.305313    1.305313
WARNING: probably wrong pi occupation for system 8. Second attempt with Nel=Nel-1!
 at,nb,topo%hyb,Npiel:          38  C             3           2           1
 at,nb,topo%hyb,Npiel:          39  O             1           2           1
 at,nb,topo%hyb,Npiel:          43  N             3           3           2
 at,nb,topo%hyb,Npiel:          44  C             3           2           1

          eigenvalues
 #    :           1          2          3          4
 occ. :        2.000      1.987      0.013      0.000
 eps  :        -4.349     -2.183      1.305      3.389
Hueckel system :  8 charge :   0 ndim/Nel :    4    4   eps(HOMO/LUMO)   -2.182833    1.305313

  atom   neighbors  erfCN metchar sp-hybrid imet pi  qest     coordinates
    1   C      2    1.94   0.00        -2    0    1  -0.027  -19.146705  -25.002966   14.467743
    2   C      3    2.78   0.00         3    0    0  -0.068  -16.291329  -26.645138   17.846574
    3   O      1    0.98   0.00         2    0    1  -0.246  -18.895372  -26.660256   12.904940
    4   H      1    0.97   0.00         0    0    0   0.114  -15.883148  -28.319436   16.720297
    5   H      1    0.97   0.00         0    0    0   0.114  -14.853247  -25.235403   17.411937
    6   H      1    0.97   0.00         0    0    0   0.114  -16.123143  -27.157254   19.834565
    7   N      3    2.79   0.00        -3    0    1  -0.065  -19.621026  -22.516087   13.859251
    8   C      4    3.49   0.00         3    0    0   0.090  -19.443392  -21.660041   11.258988
    9   C      3    2.80   0.00         2    0    1   0.172  -16.782658  -22.204282   10.319794
   10   C      2    1.91   0.00        -2    0    0  -0.265  -20.255974  -18.889702   10.881043
   11   O      1    0.98   0.00         2    0    1  -0.354  -15.002536  -21.166822   11.328908
   12   H      1    0.98   0.00         0    0    0   0.139  -19.484966  -21.136587   15.197177
   13   H      1    0.97   0.01         0    0    0   0.089  -20.749193  -22.875135   10.178065
   14   H      1    0.97   0.01         0    0    0   0.195  -20.072671  -18.477742    8.843918
   15   N      3    2.79   0.00        -3    0    1  -0.157  -16.419830  -23.991963    8.428179
   16   C      4    3.50   0.00         3    0    0   0.007  -14.080349  -25.439493    8.418730
   17   C      3    2.80   0.00         2    0    1   0.172  -12.719747  -25.456501    5.988542
   18   O      1    0.98   0.00         2    0    1  -0.356  -13.481306  -26.696161    4.215979
   19   H      1    0.98   0.00         0    0    0   0.153  -17.931611  -24.987849    7.759215
   20   H      1    0.97   0.01         0    0    0   0.091  -12.869035  -24.645808    9.905944
   21   H      1    0.97   0.01         0    0    0   0.091  -14.492310  -27.391580    9.004545
   22   N      3    2.80   0.00        -3    0    1  -0.163  -10.542782  -24.044875    5.907284
   23   C      4    3.50   0.00         3    0    0   0.005   -9.059347  -23.997632    3.667958
   24   C      3    2.79   0.00         2    0    1   0.175   -9.017773  -21.395479    2.500108
   25   O      1    0.98   0.00         2    0    1  -0.354  -11.005765  -20.257864    2.341371
   26   H      1    0.98   0.00         0    0    0   0.152  -10.179955  -22.652147    7.194187
   27   H      1    0.97   0.00         0    0    0   0.092   -7.182849  -24.702500    4.089367
   28   H      1    0.97   0.01         0    0    0   0.092   -9.934290  -25.310992    2.305466
   29   N      3    2.79   0.00        -3    0    1  -0.166   -6.821911  -20.289989    1.606267
   30   C      4    3.49   0.00         3    0    0   0.004   -4.325583  -21.442722    1.477766
   31   C      3    2.80   0.00         2    0    1   0.178   -3.367492  -21.575003   -1.182969
   32   O      1    0.98   0.00         2    0    1  -0.354   -4.329363  -23.050879   -2.647506
   33   H      1    0.98   0.00         0    0    0   0.151   -6.959861  -18.632700    0.640617
   34   H      1    0.97   0.00         0    0    0   0.093   -3.021672  -20.375027    2.675852
   35   H      1    0.97   0.00         0    0    0   0.093   -4.369047  -23.370243    2.237436
   36   N      3    2.79   0.00        -3    0    1  -0.170   -1.426743  -19.991413   -1.882167
   37   C      4    3.49   0.00         3    0    0   0.006   -0.704868  -19.798661   -4.512666
   38   C      3    2.79   0.00         2    0    1   0.195   -1.445640  -17.241861   -5.557685
   39   O      1    0.98   0.00         2    0    1  -0.357   -3.437412  -16.336682   -4.871714
   40   H      1    0.98   0.00         0    0    0   0.147   -0.918407  -18.490970   -0.784236
   41   H      1    0.97   0.00         0    0    0   0.090    1.324698  -20.116135   -4.661954
   42   H      1    0.97   0.00         0    0    0   0.090   -1.689415  -21.274537   -5.550126
   43   N      3    2.79   0.00         3    0    1  -0.226    0.054802  -15.979524   -7.284894
   44   C      3    2.78   0.00         2    0    1  -0.008    2.501997  -16.793996   -8.242985
   45   H      1    0.98   0.00         0    0    0   0.123   -0.610382  -14.373257   -8.105035
   46   H      1    0.97   0.00         0    0    0   0.055    3.994881  -16.085349   -7.054348
   47   H      1    0.97   0.01         0    0    0   0.055    2.577586  -18.884033   -8.203301

molecular fragment  # atoms  topo charge
       1             6             0.000
       2             8             0.000
       3             7            -0.000
       4             7            -0.000
       5             7             0.000
       6             7             0.000
       7             5            -0.000


          #atoms :   47
          #bonds :   45

 bond atoms        type  in ring    R      R0    piBO    fqq  kbond(tot)  alp
 O  C     3    1      2    0     1.213   0.997   0.790   1.000  -0.239   0.584
 H  C     4    2      1    0     1.089   0.938 -99.000   1.047  -0.169   0.482
 H  C     5    2      1    0     1.090   0.938 -99.000   1.047  -0.169   0.482
 H  C     6    2      1    0     1.090   0.938 -99.000   1.047  -0.169   0.482
 N  C     7    1      2    0     1.378   1.214   0.510   1.006  -0.227   0.524
 C  N     8    7      1    0     1.452   1.326 -99.000   1.047  -0.153   0.496
 C  C     9    8      1    0     1.521   1.332 -99.000   1.000  -0.160   0.475
 C  C    10    8      1    0     1.541   1.283 -99.000   1.047  -0.168   0.475
 O  C    11    9      2    0     1.214   1.031   0.857   1.047  -0.262   0.584
 H  N    12    7      1    0     1.019   0.890 -99.000   1.047  -0.176   0.551
 H  C    13    8      1    0     1.104   0.976 -99.000   1.000  -0.161   0.482
 H  C    14   10      1    0     1.104   0.902 -99.000   1.047  -0.182   0.490
 N  C    15    9      2    0     1.391   1.263   0.502   1.047  -0.234   0.524
 C  N    16   15      1    0     1.456   1.326 -99.000   1.036  -0.151   0.496
 C  C    17   16      1    0     1.474   1.333 -99.000   1.010  -0.162   0.475
 O  C    18   17      2    0     1.213   1.031   0.857   1.047  -0.262   0.584
 H  N    19   15      1    0     1.021   0.890 -99.000   1.047  -0.176   0.551
 H  C    20   16      1    0     1.098   0.977 -99.000   1.016  -0.164   0.482
 H  C    21   16      1    0     1.100   0.977 -99.000   1.016  -0.164   0.482
 N  C    22   17      2    0     1.374   1.264   0.502   1.047  -0.234   0.524
 C  N    23   22      1    0     1.422   1.326 -99.000   1.033  -0.151   0.496
 C  C    24   23      1    0     1.509   1.332 -99.000   1.013  -0.162   0.475
 O  C    25   24      2    0     1.215   1.031   0.857   1.047  -0.262   0.584
 H  N    26   22      1    0     1.022   0.890 -99.000   1.047  -0.176   0.551
 H  C    27   23      1    0     1.084   0.977 -99.000   1.018  -0.164   0.482
 H  C    28   23      1    0     1.103   0.977 -99.000   1.018  -0.164   0.482
 N  C    29   24      2    0     1.384   1.263   0.503   1.047  -0.234   0.524
 C  N    30   29      1    0     1.457   1.326 -99.000   1.032  -0.151   0.496
 C  C    31   30      1    0     1.498   1.332 -99.000   1.015  -0.163   0.475
 O  C    32   31      2    0     1.212   1.031   0.856   1.047  -0.262   0.584
 H  N    33   29      1    0     1.018   0.890 -99.000   1.047  -0.176   0.551
 H  C    34   30      1    0     1.094   0.976 -99.000   1.019  -0.164   0.482
 H  C    35   30      1    0     1.097   0.976 -99.000   1.019  -0.164   0.482
 N  C    36   31      2    0     1.376   1.263   0.503   1.047  -0.234   0.524
 C  N    37   36      1    0     1.447   1.326 -99.000   1.034  -0.151   0.496
 C  C    38   37      1    0     1.513   1.332 -99.000   1.011  -0.162   0.475
 O  C    39   38      2    0     1.213   1.018   0.930   1.047  -0.274   0.584
 H  N    40   36      1    0     1.020   0.890 -99.000   1.047  -0.176   0.551
 H  C    41   37      1    0     1.090   0.977 -99.000   1.018  -0.164   0.482
 H  C    42   37      1    0     1.088   0.977 -99.000   1.018  -0.164   0.482
 N  C    43   38      2    0     1.383   1.291   0.346   1.047  -0.203   0.524
 C  N    44   43      2    0     1.456   1.189   0.906   1.006  -0.302   0.524
 H  N    45   43      1    0     1.017   0.890 -99.000   1.047  -0.176   0.551
 H  C    46   44      1    0     1.077   0.950 -99.000   1.029  -0.179   0.490
 H  C    47   44      1    0     1.107   0.949 -99.000   1.029  -0.179   0.490
          #angl  :   71

 angle atoms        phi0    phi      FC  pi rings
    1    7    3   145.000 123.456   0.084 F   0
    2    5    4   108.600 107.619   0.179 F   0
    2    6    4   108.600 108.036   0.179 F   0
    2    6    5   108.600 108.467   0.179 F   0
    7    8    1   115.000 120.514   0.415 F   0
    7   12    1   115.000 120.580   0.342 F   0
    7   12    8   104.000 115.483   0.183 F   0
    8    9    7   109.500 108.098   0.308 F   0
    8   10    7   109.500 113.695   0.302 F   0
    8   10    9   109.500 113.339   0.303 F   0
    8   13    7   109.500 105.599   0.253 F   0
    8   13    9   109.500 107.456   0.254 F   0
    8   13   10   109.500 108.199   0.249 F   0
    9   11    8   120.000 119.277   0.180 F   0
    9   15    8   120.000 119.468   0.245 F   0
    9   15   11   120.000 121.139   0.177 F   0
   10   14    8   145.000 106.863   0.087 F   0
   15   16    9   115.000 118.543   0.410 F   0
   15   19    9   115.000 119.498   0.334 F   0
   15   19   16   104.000 113.167   0.182 F   0
   16   17   15   109.500 114.937   0.307 F   0
   16   20   15   109.500 107.013   0.253 F   0
   16   20   17   109.500 110.023   0.252 F   0
   16   21   15   109.500 108.937   0.253 F   0
   16   21   17   109.500 109.687   0.252 F   0
   16   21   20   108.600 105.826   0.209 F   0
   17   18   16   120.000 121.032   0.178 F   0
   17   22   16   120.000 115.701   0.243 F   0
   17   22   18   120.000 123.249   0.177 F   0
   22   23   17   115.000 119.916   0.410 F   0
   22   26   17   115.000 121.939   0.334 F   0
   22   26   23   104.000 116.050   0.182 F   0
   23   24   22   109.500 111.429   0.307 F   0
   23   27   22   109.500 109.167   0.253 F   0
   23   27   24   109.500 112.631   0.251 F   0
   23   28   22   109.500 107.573   0.253 F   0
   23   28   24   109.500 108.253   0.251 F   0
   23   28   27   108.600 107.585   0.209 F   0
   24   25   23   120.000 117.884   0.178 F   0
   24   29   23   120.000 122.523   0.243 F   0
   24   29   25   120.000 119.592   0.176 F   0
   29   30   24   115.000 126.888   0.409 F   0
   29   33   24   115.000 118.396   0.334 F   0
   29   33   30   104.000 113.736   0.182 F   0
   30   31   29   109.500 111.737   0.307 F   0
   30   34   29   109.500 109.183   0.253 F   0
   30   34   31   109.500 110.810   0.251 F   0
   30   35   29   109.500 110.695   0.253 F   0
   30   35   31   109.500 107.949   0.251 F   0
   30   35   34   108.600 106.326   0.209 F   0
   31   32   30   120.000 119.264   0.178 F   0
   31   36   30   120.000 118.476   0.242 F   0
   31   36   32   120.000 122.259   0.176 F   0
   36   37   31   115.000 119.904   0.409 F   0
   36   40   31   115.000 121.177   0.333 F   0
   36   40   37   104.000 115.053   0.182 F   0
   37   38   36   109.500 110.253   0.307 F   0
   37   41   36   109.500 108.602   0.253 F   0
   37   41   38   109.500 111.505   0.251 F   0
   37   42   36   109.500 107.969   0.253 F   0
   37   42   38   109.500 109.481   0.251 F   0
   37   42   41   108.600 108.952   0.209 F   0
   38   39   37   120.000 117.948   0.177 F   0
   38   43   37   120.000 121.649   0.241 F   0
   38   43   39   120.000 120.388   0.174 F   0
   43   44   38   113.000 126.719   0.042 F   0
   43   45   38   113.000 119.142   0.211 F   0
   43   45   44   113.000 113.990   0.105 F   0
   44   46   43   120.000 110.238   0.204 F   0
   44   47   43   120.000 108.742   0.204 F   0
   44   47   46   120.000 108.075   0.167 F   0
 torsion atoms        nrot   rings    phi0    phi      FC
    7    1    8    3   2      0     180.000  10.052   0.639
    7    1   12    3   2      0     180.000 168.232   0.948
    8    7    9    1   3      0     180.000  58.250   0.024
    8    7    9   12   3      0     180.000 100.988   0.033
    8    7   10    1   3      0     180.000 174.981   0.026
    8    7   10   12   3      0     180.000  25.781   0.035
    8    7   13    1   3      0     180.000  56.515   0.035
    8    7   13   12   3      0     180.000 144.247   0.046
    9    8   11    7   3      0     180.000  62.917   0.075
    9    8   11   10   3      0     180.000  64.058   0.097
    9    8   11   13   3      0     180.000 176.453   0.131
    9    8   15    7   3      0     180.000 113.210   0.047
    9    8   15   10   3      0     180.000 119.815   0.061
    9    8   15   13   3      0     180.000   0.326   0.082
   10    8   14    7   1      0     180.000 178.979   0.143
   10    8   14    9   1      0     180.000  57.046   0.176
   10    8   14   13   1      0     180.000  62.017   0.251
   15    9   16    8   2      0     180.000 148.641   0.600
   15    9   16   11   2      0     180.000  27.412   0.813
   15    9   19    8   2      0     180.000   3.329   0.890
   15    9   19   11   2      0     180.000 172.724   1.207
   16   15   17    9   3      0     180.000 128.716   0.022
   16   15   17   19   3      0     180.000  83.885   0.032
   16   15   20    9   3      0     180.000   6.226   0.032
   16   15   20   19   3      0     180.000 153.625   0.045
   16   15   21    9   3      0     180.000 107.759   0.032
   16   15   21   19   3      0     180.000  39.640   0.045
   17   16   18   15   3      0     180.000  74.115   0.066
   17   16   18   20   3      0     180.000 165.029   0.115
   17   16   18   21   3      0     180.000  49.010   0.115
   17   16   22   15   3      0     180.000 107.396   0.041
   17   16   22   20   3      0     180.000  13.460   0.072
   17   16   22   21   3      0     180.000 129.479   0.072
   22   17   23   16   2      0     180.000 178.253   0.606
   22   17   23   18   2      0     180.000   0.198   0.821
   22   17   26   16   2      0     180.000  18.856   0.899
   22   17   26   18   2      0     180.000 162.692   1.218
   23   22   24   17   3      0     180.000 114.837   0.022
   23   22   24   26   3      0     180.000  49.029   0.032
   23   22   27   17   3      0     180.000 120.130   0.032
   23   22   27   26   3      0     180.000  76.004   0.045
   23   22   28   17   3      0     180.000   3.669   0.032
   23   22   28   26   3      0     180.000 167.535   0.045
   24   23   25   22   3      0     180.000  44.918   0.066
   24   23   25   27   3      0     180.000 167.993   0.115
   24   23   25   28   3      0     180.000  73.180   0.115
   24   23   29   22   3      0     180.000 135.450   0.041
   24   23   29   27   3      0     180.000  12.374   0.072
   24   23   29   28   3      0     180.000 106.453   0.072
   29   24   30   23   2      0     180.000   4.382   0.612
   29   24   30   25   2      0     180.000 175.244   0.830
   29   24   33   23   2      0     180.000 172.291   0.908
   29   24   33   25   2      0     180.000   7.335   1.231
   30   29   31   24   3      0     180.000 119.264   0.022
   30   29   31   33   3      0     180.000  49.125   0.032
   30   29   34   24   3      0     180.000 117.802   0.032
   30   29   34   33   3      0     180.000  73.809   0.045
   30   29   35   24   3      0     180.000   1.085   0.032
   30   29   35   33   3      0     180.000 169.473   0.045
   31   30   32   29   3      0     180.000  71.123   0.066
   31   30   32   34   3      0     180.000 166.873   0.115
   31   30   32   35   3      0     180.000  50.819   0.115
   31   30   36   29   3      0     180.000 108.401   0.041
   31   30   36   34   3      0     180.000  13.602   0.072
   31   30   36   35   3      0     180.000 129.657   0.072
   36   31   37   30   2      0     180.000 170.908   0.620
   36   31   37   32   2      0     180.000   8.601   0.840
   36   31   40   30   2      0     180.000  14.135   0.920
   36   31   40   32   2      0     180.000 165.374   1.246
   37   36   38   31   3      0     180.000 109.898   0.022
   37   36   38   40   3      0     180.000  48.235   0.032
   37   36   41   31   3      0     180.000 127.660   0.032
   37   36   41   40   3      0     180.000  74.207   0.045
   37   36   42   31   3      0     180.000   9.664   0.032
   37   36   42   40   3      0     180.000 167.797   0.045
   38   37   39   36   3      0     180.000  38.174   0.066
   38   37   39   41   3      0     180.000 158.892   0.115
   38   37   39   42   3      0     180.000  80.468   0.115
   38   37   43   36   3      0     180.000 143.240   0.041
   38   37   43   41   3      0     180.000  22.522   0.072
   38   37   43   42   3      0     180.000  98.118   0.072
   43   38   44   37   2      0     180.000   2.812   0.343
   43   38   44   39   2      0     180.000 178.636   0.465
   43   38   45   37   2      0     180.000 172.470   0.489
   43   38   45   39   2      0     180.000   6.082   0.662
   44   43   46   38   2      0     180.000  89.734   1.385
   44   43   46   45   2      0     180.000  94.776   1.974
   44   43   47   38   2      0     180.000  28.579   1.385
   44   43   47   45   2      0     180.000 146.912   1.974
 out-of-plane atoms          phi0    phi      FC
    7   12    1    8          0.000 -18.676   0.527
    9   11   15    8          0.000   3.436  23.813
   15   19    9   16          0.000  29.996   0.171
   17   18   22   16          0.000  -1.395  23.776
   22   26   17   23          0.000  14.773   0.147
   24   25   29   23          0.000  -0.315  23.962
   29   33   24   30          0.000   9.644   0.135
   31   32   36   30          0.000   0.431  24.122
   36   40   31   37          0.000  19.990   0.117
   38   39   43   37          0.000  -1.233  28.541
   43   45   38   44          0.000   3.780  -0.051
   44   46   47   43          0.000  55.369   0.552
          #tors  :   101
          #nmol  :   7
          #optfrag :   7

 GFN-FF setup done.

           ------------------------------------------------- 
          |                   G F N - F F                   |
          |          A general generic force-field          |
          |                  Version 1.0.3                  | 
           ------------------------------------------------- 
      * Solvation model:               ALPB
        Solvent                        water
        Parameter file                 internal GFN-FF/ALPB
        Dielectric constant                8.0200E+01
        Reference state                gsolv [1 M gas/solution]
        Free energy shift                  3.6494E-04 Eh       2.2900E-01 kcal/mol
        Temperature                        2.9815E+02 K
        Density                            1.0000E+00 kg/L
        Solvent mass                       1.8000E+01 g/mol
        Interaction kernel             P16
        Born radius scaling (c1)           1.5056E+00
        Born radii integrator          GBOBC
        Born offset                        0.0000E+00 a0       0.0000E+00 AA
        H-bond correction              true
        Ion screening                  false
        Surface tension                    1.0000E-05 Eh       1.5569E+01 dyn/cm
        Grid points                               230 per atom
          Number of HB bonds (bound hydrogen)     702
          Number of HB bonds (unbound hydrogen)   95
          Number of XB bonds                      0

 E+G (total)                   0 d,  0 h,  0 min,  0.001 sec
 distance/D3 list               ...        0 min,  0.000 sec (  0.438%)
 non bonded repulsion           ...        0 min,  0.000 sec (  1.849%)
 dCN                            ...        0 min,  0.000 sec (  5.305%)
 EEQ energy and q               ...        0 min,  0.000 sec (  5.845%)
 D3                             ...        0 min,  0.000 sec (  8.707%)
 EEQ gradient                   ...        0 min,  0.000 sec (  5.179%)
 bonds                          ...        0 min,  0.000 sec (  0.797%)
 bend and torsion               ...        0 min,  0.000 sec (  2.889%)
 bonded ATM                     ...        0 min,  0.000 sec (  1.245%)
 HB/XB (incl list setup)        ...        0 min,  0.000 sec ( 11.900%)
 GBSA                           ...        0 min,  0.001 sec ( 58.790%)

         :::::::::::::::::::::::::::::::::::::::::::::::::::::
         ::                     SUMMARY                     ::
         :::::::::::::::::::::::::::::::::::::::::::::::::::::
         :: total energy              -8.151725274817 Eh    ::
         :: total w/o Gsolv           -8.089592345737 Eh    ::
         :: total w/o Gsasa/hb        -8.139600856929 Eh    ::
         :: gradient norm              0.194761771763 Eh/a0 ::
         ::.................................................::
         :: bond energy               -8.167744231726 Eh    ::
         :: angle energy               0.036698226561 Eh    ::
         :: torsion energy             0.025541191877 Eh    ::
         :: repulsion energy           0.502198774860 Eh    ::
         :: electrostat energy        -0.441214996519 Eh    ::
         :: dispersion energy         -0.032609256348 Eh    ::
         :: HB energy                 -0.000886770600 Eh    ::
         :: XB energy                  0.000000000000 Eh    ::
         :: bonded atm energy         -0.011575283841 Eh    ::
         :: external energy            0.000000000000 Eh    ::
         :: -> Gsolv                  -0.062132929079 Eh    ::
         ::    -> Gborn               -0.050008511192 Eh    ::
         ::    -> Gsasa                0.009429828934 Eh    ::
         ::    -> Ghb                 -0.021919186076 Eh    ::
         ::    -> Gshift               0.000364939255 Eh    ::
         :: add. restraining           0.000000000000 Eh    ::
         :: total charge              -0.000000000000 e     ::
         ::.................................................::
         :: atomisation energy         0.000000000000 Eh    ::
         :::::::::::::::::::::::::::::::::::::::::::::::::::::

      ----------------------------------------------------------- 
     |                   =====================                   |
     |                        A N C O P T                        |
     |                   =====================                   |
     |               Approximate Normal Coordinate               |
     |                Rational Function Optimizer                |
      ----------------------------------------------------------- 

          ...................................................
          :                      SETUP                      :
          :.................................................:
          :   optimization level         verytight          :
          :   max. optcycles                    10          :
          :   ANC micro-cycles                  10          :
          :   degrees of freedom               135          :
          :.................................................:
          :   RF solver                   davidson          :
          :   write xtbopt.log                true          :
          :   linear?                        false          :
          :   energy convergence         0.1000000E-06 Eh   :
          :   grad. convergence          0.2000000E-03 Eh/α :
          :   maxmium RF displ.          1.0000000          :
          :   Hlow (freq-cutoff)         0.1000000E-01      :
          :   Hmax (freq-cutoff)         5.0000000          :
          :   S6 in model hess.         20.0000000          :
          ...................................................

generating ANC from model Hessian ...
Using GFN-FF Lindh-Hessian
 Shifting diagonal of input Hessian by    0.0000000000000000     
 Lowest  eigenvalues of input Hessian
    0.000000    0.000000    0.000000    0.000000    0.000000    0.000000
    0.017635    0.024539    0.025388    0.031857    0.048150    0.065343
    0.076720    0.086084    0.096783    0.103275    0.109615    0.114071
 Highest eigenvalues
    3.372150    3.702442    3.729478    4.005048    4.197594    4.323721


........................................................................
.............................. CYCLE    1 ..............................
........................................................................
     iter. time                 ...        0 min,  0.001 sec
 * total energy  :    -8.1517253 Eh     change        0.0000000E+00 Eh
   gradient norm :     0.1947618 Eh/α   predicted     0.0000000E+00 (    NaN%)
   displ. norm   :     0.1467622 α      lambda       -0.1890194E-01
   maximum displ.:     0.0606011 α      in ANC's #30, #21, #39, ...

........................................................................
.............................. CYCLE    2 ..............................
........................................................................
     iter. time                 ...        0 min,  0.001 sec
 * total energy  :    -8.1645341 Eh     change       -0.1280886E-01 Eh
   gradient norm :     0.0734224 Eh/α   predicted    -0.9691191E-02 ( -24.34%)
   displ. norm   :     0.0941186 α      lambda       -0.4646176E-02
   maximum displ.:     0.0433334 α      in ANC's #30, #39, #21, ...

........................................................................
.............................. CYCLE    3 ..............................
........................................................................
     iter. time                 ...        0 min,  0.001 sec
 * total energy  :    -8.1671017 Eh     change       -0.2567537E-02 Eh
   gradient norm :     0.0189778 Eh/α   predicted    -0.2343717E-02 (  -8.72%)
   displ. norm   :     0.0251816 α      lambda       -0.2580722E-03
   maximum displ.:     0.0100011 α      in ANC's #30, #45, #13, ...

........................................................................
.............................. CYCLE    4 ..............................
........................................................................
     iter. time                 ...        0 min,  0.001 sec
 * total energy  :    -8.1672833 Eh     change       -0.1816255E-03 Eh
   gradient norm :     0.0097058 Eh/α   predicted    -0.1355309E-03 ( -25.38%)
   displ. norm   :     0.0151108 α      lambda       -0.8292140E-04
   maximum displ.:     0.0059481 α      in ANC's #45, #1, #13, ...

........................................................................
.............................. CYCLE    5 ..............................
........................................................................
     iter. time                 ...        0 min,  0.001 sec
 * total energy  :    -8.1673323 Eh     change       -0.4904594E-04 Eh
   gradient norm :     0.0031160 Eh/α   predicted    -0.4157726E-04 ( -15.23%)
   displ. norm   :     0.0060111 α      lambda       -0.1018538E-04
   maximum displ.:     0.0029466 α      in ANC's #1, #45, #21, ...

........................................................................
.............................. CYCLE    6 ..............................
........................................................................
     iter. time                 ...        0 min,  0.001 sec
 * total energy  :    -8.1673394 Eh     change       -0.7095153E-05 Eh
   gradient norm :     0.0013748 Eh/α   predicted    -0.5305845E-05 ( -25.22%)
   displ. norm   :     0.0071477 α      lambda       -0.3480658E-05
   maximum displ.:     0.0041347 α      in ANC's #1, #45, #30, ...

........................................................................
.............................. CYCLE    7 ..............................
........................................................................
     iter. time                 ...        0 min,  0.001 sec
 * total energy  :    -8.1673417 Eh     change       -0.2267849E-05 Eh
   gradient norm :     0.0010517 Eh/α   predicted    -0.1766714E-05 ( -22.10%)
   displ. norm   :     0.0017675 α      lambda       -0.5928468E-06
   maximum displ.:     0.0010006 α      in ANC's #1, #3, #45, ...

........................................................................
.............................. CYCLE    8 ..............................
........................................................................
     iter. time                 ...        0 min,  0.001 sec
 * total energy  :    -8.1673423 Eh     change       -0.6265765E-06 Eh
   gradient norm :     0.0004237 Eh/α   predicted    -0.2999567E-06 ( -52.13%)
   displ. norm   :     0.0035670 α      lambda       -0.3254072E-06
   maximum displ.:     0.0026917 α      in ANC's #1, #3, #45, ...

........................................................................
.............................. CYCLE    9 ..............................
........................................................................
     iter. time                 ...        0 min,  0.001 sec
 * total energy  :    -8.1673427 Eh     change       -0.3220078E-06 Eh
   gradient norm :     0.0001968 Eh/α   predicted    -0.1696593E-06 ( -47.31%)
   displ. norm   :     0.0030047 α      lambda       -0.9827136E-07
   maximum displ.:     0.0023192 α      in ANC's #1, #3, #7, ...

........................................................................
.............................. CYCLE   10 ..............................
........................................................................
     iter. time                 ...        0 min,  0.001 sec
 * total energy  :    -8.1673428 Eh     change       -0.1204234E-06 Eh
   gradient norm :     0.0002199 Eh/α   predicted    -0.5233296E-07 ( -56.54%)
   displ. norm   :     0.0055924 α      lambda       -0.1417622E-06
   maximum displ.:     0.0042717 α      in ANC's #1, #3, #7, ...

   *** FAILED TO CONVERGE GEOMETRY OPTIMIZATION IN 10 ITERATIONS ***


 ANCopt (total)                0 d,  0 h,  0 min,  0.012 sec
 optimizer setup                ...        0 min,  0.000 sec (  0.779%)
 model hessian                  ...        0 min,  0.000 sec (  3.288%)
 ANC generation                 ...        0 min,  0.001 sec (  9.519%)
 coordinate transformation      ...        0 min,  0.000 sec (  0.408%)
 single point calculation       ...        0 min,  0.009 sec ( 76.959%)
 optimization log               ...        0 min,  0.001 sec (  4.681%)
 hessian update                 ...        0 min,  0.000 sec (  0.634%)
 rational function              ...        0 min,  0.000 sec (  2.236%)

================
 final structure:
================
ATOM      1  C   ALA A   7     -10.155 -13.217   7.636  1.00  0.00           C  
ATOM      2  CB  ALA A   7      -8.596 -14.105   9.453  1.00  0.00           C  
ATOM      3  O   ALA A   7      -9.988 -14.118   6.838  1.00  0.00           O  
ATOM      4  HB1 ALA A   7      -8.408 -14.977   8.852  1.00  0.00           H  
ATOM      5  HB2 ALA A   7      -7.865 -13.354   9.214  1.00  0.00           H  
ATOM      6  HB3 ALA A   7      -8.537 -14.366  10.495  1.00  0.00           H  
ATOM      7  N   VAL A   8     -10.384 -11.918   7.338  1.00  0.00           N  
ATOM      8  CA  VAL A   8     -10.293 -11.452   5.955  1.00  0.00           C  
ATOM      9  C   VAL A   8      -8.880 -11.750   5.462  1.00  0.00           C  
ATOM     10  CB  VAL A   8     -10.749 -10.047   5.715  1.00  0.00           C  
ATOM     11  O   VAL A   8      -7.939 -11.202   5.996  1.00  0.00           O  
ATOM     12  H   VAL A   8     -10.305 -11.184   8.046  1.00  0.00           H  
ATOM     13  HA  VAL A   8     -10.979 -12.110   5.387  1.00  0.00           H  
ATOM     14  HB  VAL A   8     -10.593  -9.735   4.723  1.00  0.00           H  
ATOM     15  N   GLY A   9      -8.688 -12.696   4.462  1.00  0.00           N  
ATOM     16  CA  GLY A   9      -7.451 -13.464   4.461  1.00  0.00           C  
ATOM     17  C   GLY A   9      -6.731 -13.470   3.169  1.00  0.00           C  
ATOM     18  O   GLY A   9      -7.133 -14.128   2.233  1.00  0.00           O  
ATOM     19  H   GLY A   9      -9.488 -13.224   4.106  1.00  0.00           H  
ATOM     20  HA2 GLY A   9      -6.809 -13.042   5.243  1.00  0.00           H  
ATOM     21  HA3 GLY A   9      -7.668 -14.495   4.766  1.00  0.00           H  
ATOM     22  N   GLY A  10      -5.582 -12.721   3.124  1.00  0.00           N  
ATOM     23  CA  GLY A  10      -4.800 -12.697   1.932  1.00  0.00           C  
ATOM     24  C   GLY A  10      -4.774 -11.324   1.318  1.00  0.00           C  
ATOM     25  O   GLY A  10      -5.826 -10.725   1.229  1.00  0.00           O  
ATOM     26  H   GLY A  10      -5.393 -11.981   3.804  1.00  0.00           H  
ATOM     27  HA2 GLY A  10      -3.801 -13.069   2.168  1.00  0.00           H  
ATOM     28  HA3 GLY A  10      -5.254 -13.398   1.221  1.00  0.00           H  
ATOM     29  N   GLY A  11      -3.610 -10.738   0.850  1.00  0.00           N  
ATOM     30  CA  GLY A  11      -2.287 -11.354   0.783  1.00  0.00           C  
ATOM     31  C   GLY A  11      -1.782 -11.419  -0.626  1.00  0.00           C  
ATOM     32  O   GLY A  11      -2.291 -12.200  -1.401  1.00  0.00           O  
ATOM     33  H   GLY A  11      -3.682  -9.861   0.340  1.00  0.00           H  
ATOM     34  HA2 GLY A  11      -1.598 -10.785   1.416  1.00  0.00           H  
ATOM     35  HA3 GLY A  11      -2.313 -12.369   1.183  1.00  0.00           H  
ATOM     36  N   GLY A  12      -0.755 -10.582  -0.997  1.00  0.00           N  
ATOM     37  CA  GLY A  12      -0.376 -10.470  -2.387  1.00  0.00           C  
ATOM     38  C   GLY A  12      -0.779  -9.126  -2.947  1.00  0.00           C  
ATOM     39  O   GLY A  12      -1.820  -8.645  -2.579  1.00  0.00           O  
ATOM     40  H   GLY A  12      -0.485  -9.788  -0.415  1.00  0.00           H  
ATOM     41  HA2 GLY A  12       0.700 -10.648  -2.469  1.00  0.00           H  
ATOM     42  HA3 GLY A  12      -0.893 -11.262  -2.937  1.00  0.00           H  
ATOM     43  N   GLY A  13       0.055  -8.484  -3.870  1.00  0.00           N  
ATOM     44  CA  GLY A  13       1.296  -8.871  -4.356  1.00  0.00           C  
ATOM     45  H   GLY A  13      -0.305  -7.600  -4.266  1.00  0.00           H  
ATOM     46  HA2 GLY A  13       2.117  -8.517  -3.739  1.00  0.00           H  
ATOM     47  HA3 GLY A  13       1.365  -9.968  -4.340  1.00  0.00           H  
END

 Bond Distances (Angstroems)
 ---------------------------
C1-O3=1.2143         C1-N7=1.3526         C2-H4=1.0756         C2-H5=1.0748         C2-H6=1.0759         O3-C1=1.2143         
H4-C2=1.0756         H5-C2=1.0748         H6-C2=1.0759         N7-C1=1.3526         N7-C8=1.4622         N7-H12=1.0235        
C8-N7=1.4622         C8-C9=1.5256         C8-C10=1.4970        C8-H13=1.1073        C9-C8=1.5256         C9-O11=1.2130        
C9-N15=1.3898        C10-C8=1.4970        C10-H14=1.0515       O11-C9=1.2130        H12-N7=1.0235        H13-C8=1.1073        
H14-C10=1.0515       N15-C9=1.3898        N15-C16=1.4560       N15-H19=1.0217       C16-N15=1.4560       C16-C17=1.4790       
C16-H20=1.0958       C16-H21=1.0975       C17-C16=1.4790       C17-O18=1.2128       C17-N22=1.3725       O18-C17=1.2128       
H19-N15=1.0217       H20-C16=1.0958       H21-C16=1.0975       N22-C17=1.3725       N22-C23=1.4262       N22-H26=1.0225       
C23-N22=1.4262       C23-C24=1.5043       C23-H27=1.0919       C23-H28=1.0963       C24-C23=1.5043       C24-O25=1.2139       
C24-N29=1.3842       O25-C24=1.2139       H26-N22=1.0225       H27-C23=1.0919       H28-C23=1.0963       N29-C24=1.3842       
N29-C30=1.4607       N29-H33=1.0172       C30-N29=1.4607       C30-C31=1.4979       C30-H34=1.0947       C30-H35=1.0917       
C31-C30=1.4979       C31-O32=1.2122       C31-N36=1.3758       O32-C31=1.2122       H33-N29=1.0172       H34-C30=1.0947       
H35-C30=1.0917       N36-C31=1.3758       N36-C37=1.4459       N36-H40=1.0207       C37-N36=1.4459       C37-C38=1.5109       
C37-H41=1.0935       C37-H42=1.0938       C38-C37=1.5109       C38-O39=1.2045       C38-N43=1.3990       O39-C38=1.2045       
H40-N36=1.0207       H41-C37=1.0935       H42-C37=1.0938       N43-C38=1.3990       N43-C44=1.3880       N43-H45=1.0340       
C44-N43=1.3880       C44-H46=1.0864       C44-H47=1.0996       H45-N43=1.0340       H46-C44=1.0864       H47-C44=1.0996       
 C  H  Rav=1.0884 sigma=0.0133  Rmin=1.0515  Rmax=1.1073    15
 C  C  Rav=1.5024 sigma=0.0142  Rmin=1.4790  Rmax=1.5256     6
 N  H  Rav=1.0233 sigma=0.0052  Rmin=1.0172  Rmax=1.0340     6
 N  C  Rav=1.4094 sigma=0.0371  Rmin=1.3526  Rmax=1.4622    12
 O  C  Rav=1.2118 sigma=0.0033  Rmin=1.2045  Rmax=1.2143     6

 selected bond angles (degree)
 --------------------
N7-C1-O3=126.20                H5-C2-H4=108.83                H6-C2-H4=109.56                H6-C2-H5=110.38                
C8-N7-C1=120.26                H12-N7-C1=121.59               H12-N7-C8=114.94               C9-C8-N7=107.51                
C10-C8-N7=115.57               C10-C8-C9=114.44               H13-C8-N7=104.93               H13-C8-C9=106.99               
H13-C8-C10=106.65              O11-C9-C8=119.20               N15-C9-C8=119.55               N15-C9-O11=121.16              
H14-C10-C8=112.61              

 selected dihedral angles (degree)
 ---------------------------------
C8-N7-C1-O3=352.69            H12-N7-C1-O3=193.99           C9-C8-N7-C1=301.04            C9-C8-N7-H12=101.09           
C10-C8-N7-C1=171.85           C10-C8-N7-H12=331.90          H13-C8-N7-C1= 54.70           H13-C8-N7-H12=214.75          
O11-C9-C8-N7=296.44           O11-C9-C8-C10= 66.28          O11-C9-C8-H13=184.18          N15-C9-C8-N7=112.96           
N15-C9-C8-C10=242.80          N15-C9-C8-H13=  0.70          H14-C10-C8-N7=175.45          H14-C10-C8-C9= 49.72          
H14-C10-C8-H13=291.63         

 CMA Distance (Angstroems)
 ---------------------------
R(CMA):  8.6324
           -------------------------------------------------
          |                Final Singlepoint                |
           -------------------------------------------------
         :::::::::::::::::::::::::::::::::::::::::::::::::::::
         ::                     SUMMARY                     ::
         :::::::::::::::::::::::::::::::::::::::::::::::::::::
         :: total energy              -8.167342947903 Eh    ::
         :: total w/o Gsolv           -8.105071543968 Eh    ::
         :: total w/o Gsasa/hb        -8.154984377998 Eh    ::
         :: gradient norm              0.000235583163 Eh/a0 ::
         ::.................................................::
         :: bond energy               -8.198954265698 Eh    ::
         :: angle energy               0.035687796625 Eh    ::
         :: torsion energy             0.028063073516 Eh    ::
         :: repulsion energy           0.510654885926 Eh    ::
         :: electrostat energy        -0.443252907379 Eh    ::
         :: dispersion energy         -0.032618333382 Eh    ::
         :: HB energy                 -0.000896552449 Eh    ::
         :: XB energy                  0.000000000000 Eh    ::
         :: bonded atm energy         -0.011290996560 Eh    ::
         :: external energy            0.000000000000 Eh    ::
         :: -> Gsolv                  -0.062271403936 Eh    ::
         ::    -> Gborn               -0.049912834030 Eh    ::
         ::    -> Gsasa                0.009456294360 Eh    ::
         ::    -> Ghb                 -0.022179803520 Eh    ::
         ::    -> Gshift               0.000364939255 Eh    ::
         :: add. restraining           0.007535755434 Eh    ::
         :: total charge              -0.000000000000 e     ::
         ::.................................................::
         :: atomisation energy         0.000000000000 Eh    ::
         :::::::::::::::::::::::::::::::::::::::::::::::::::::

           -------------------------------------------------
          |                Property Printout                |
           -------------------------------------------------
           -------------------------------------------------
          |                Geometry Summary                 |
           -------------------------------------------------

      molecular mass/u    :      369.3537071
   center of mass at/Å    :       -5.3706500     -11.5857288       2.2477662
  moments of inertia/u·Å² :        0.8499576E+03   0.1102700E+05   0.1134268E+05
rotational constants/cm⁻¹ :        0.1983350E-01   0.1528760E-02   0.1486213E-02

 * 38 selected distances

     #   Z          #   Z                                           value/Å
     2   6  C       4   1  H                                      1.0756249
     2   6  C       5   1  H                                      1.0748387
     2   6  C       6   1  H                                      1.0758592
     1   6  C       7   7  N                                      1.3525708
     7   7  N       8   6  C                                      1.4621654
     9   6  C      11   8  O                                      1.2129632
     7   7  N      12   1  H                                      1.0234708
     8   6  C      13   1  H                                      1.1072581
     9   6  C      15   7  N                                      1.3898229
    15   7  N      16   6  C                                      1.4560124
    16   6  C      17   6  C                                      1.4790022 (max)
    17   6  C      18   8  O                                      1.2127956
    15   7  N      19   1  H                                      1.0217258
    16   6  C      20   1  H                                      1.0957670
    16   6  C      21   1  H                                      1.0974755
    17   6  C      22   7  N                                      1.3724917
    22   7  N      23   6  C                                      1.4261677
    24   6  C      25   8  O                                      1.2138905
    22   7  N      26   1  H                                      1.0225267
    23   6  C      27   1  H                                      1.0919180
    23   6  C      28   1  H                                      1.0963362
    24   6  C      29   7  N                                      1.3842441
    29   7  N      30   6  C                                      1.4607076
    31   6  C      32   8  O                                      1.2122359
    29   7  N      33   1  H                                      1.0171652 (min)
    30   6  C      34   1  H                                      1.0947209
    30   6  C      35   1  H                                      1.0916765
    31   6  C      36   7  N                                      1.3758183
    36   7  N      37   6  C                                      1.4458843
    38   6  C      39   8  O                                      1.2045240
    36   7  N      40   1  H                                      1.0206894
    37   6  C      41   1  H                                      1.0934950
    37   6  C      42   1  H                                      1.0938447
    38   6  C      43   7  N                                      1.3990359
    43   7  N      44   6  C                                      1.3880042
    43   7  N      45   1  H                                      1.0339711
    44   6  C      46   1  H                                      1.0864156
    44   6  C      47   1  H                                      1.0996282

 * 5 distinct bonds (by element types)

   Z      Z             #   av. dist./Å        max./Å        min./Å
   1 H    6 C          14     1.0910613     1.1072581     1.0748387
   6 C    6 C           1     1.4790022     1.4790022     1.4790022
   1 H    7 N           6     1.0232582     1.0339711     1.0171652
   6 C    7 N          12     1.4094105     1.4621654     1.3525708
   6 C    8 O           5     1.2112818     1.2138905     1.2045240


optimized geometry written to: xtbopt.pdb


           -------------------------------------------------
          | TOTAL ENERGY               -8.167342947903 Eh   |
          | GRADIENT NORM               0.000235583163 Eh/α |
           -------------------------------------------------
########################################################################
[WARNING] Runtime exception occurred
-1- gfnff_setup: Could not read topology file.
########################################################################

------------------------------------------------------------------------
 unit  open   action     filename
   10 false : read       xtb_settings.inp
   10 false : read       substructure_33.pdb
   10 false : read       xtb_settings.inp
   10 false : written    gfnff_topo
   10 false : written    gfnff_adjacency
   10 false : written    gfnff_charges
   10 false : deleted    .xtboptok
   10 false : replaced   xtbopt.log
   11 false : created    .xtboptok
   11 false : replaced   gfnff_charges
   10 false : replaced   xtbopt.pdb

------------------------------------------------------------------------
 * finished run on 2025/05/27 at 09:37:46.292     
------------------------------------------------------------------------
 total:
 * wall-time:     0 d,  0 h,  0 min,  0.018 sec
 *  cpu-time:     0 d,  0 h,  0 min,  0.018 sec
 * ratio c/w:     0.999 speedup
 SCF:
 * wall-time:     0 d,  0 h,  0 min,  0.001 sec
 *  cpu-time:     0 d,  0 h,  0 min,  0.001 sec
 * ratio c/w:     1.000 speedup
 ANC optimizer:
 * wall-time:     0 d,  0 h,  0 min,  0.013 sec
 *  cpu-time:     0 d,  0 h,  0 min,  0.013 sec
 * ratio c/w:     0.999 speedup

