      -----------------------------------------------------------      
     |                   =====================                   |     
     |                           x T B                           |     
     |                   =====================                   |     
     |                         S. Grimme                         |     
     |          Mulliken Center for Theoretical Chemistry        |     
     |                    University of Bonn                     |     
      -----------------------------------------------------------      

   * xtb version 6.6.1 (8d0f1dd) compiled by 'conda@1efc2f54142f' on 2023-08-01

   xtb is free software: you can redistribute it and/or modify it under
   the terms of the GNU Lesser General Public License as published by
   the Free Software Foundation, either version 3 of the License, or
   (at your option) any later version.
   
   xtb is distributed in the hope that it will be useful,
   but WITHOUT ANY WARRANTY; without even the implied warranty of
   MERCHANTABILITY or FITNESS FOR A PARTICULAR PURPOSE.  See the
   GNU Lesser General Public License for more details.
   
   Cite this work as:
   * C. Bannwarth, E. Caldeweyher, S. Ehlert, A. Hansen, P. Pracht,
     J. Seibert, S. Spicher, S. Grimme, WIREs Comput. Mol. Sci., 2020, 11,
     e01493. DOI: 10.1002/wcms.1493
   
   for GFN2-xTB:
   * C. Bannwarth, S. Ehlert and S. Grimme., J. Chem. Theory Comput., 2019,
     15, 1652-1671. DOI: 10.1021/acs.jctc.8b01176
   for GFN1-xTB:
   * S. Grimme, C. Bannwarth, P. Shushkov, J. Chem. Theory Comput., 2017,
     13, 1989-2009. DOI: 10.1021/acs.jctc.7b00118
   for GFN0-xTB:
   * P. Pracht, E. Caldeweyher, S. Ehlert, S. Grimme, ChemRxiv, 2019, preprint.
     DOI: 10.26434/chemrxiv.8326202.v1
   for GFN-FF:
   * S. Spicher and S. Grimme, Angew. Chem. Int. Ed., 2020, 59, 15665-15673.
     DOI: 10.1002/anie.202004239
   
   for ALPB and GBSA implicit solvation:
   * S. Ehlert, M. Stahn, S. Spicher, S. Grimme, J. Chem. Theory Comput.,
     2021, 17, 4250-4261. DOI: 10.1021/acs.jctc.1c00471
   
   for DFT-D4:
   * E. Caldeweyher, C. Bannwarth and S. Grimme, J. Chem. Phys., 2017,
     147, 034112. DOI: 10.1063/1.4993215
   * E. Caldeweyher, S. Ehlert, A. Hansen, H. Neugebauer, S. Spicher,
     C. Bannwarth and S. Grimme, J. Chem. Phys., 2019, 150, 154122.
     DOI: 10.1063/1.5090222
   * E. Caldeweyher, J.-M. Mewes, S. Ehlert and S. Grimme, Phys. Chem. Chem. Phys.
     2020, 22, 8499-8512. DOI: 10.1039/D0CP00502A
   
   for sTDA-xTB:
   * S. Grimme and C. Bannwarth, J. Chem. Phys., 2016, 145, 054103.
     DOI: 10.1063/1.4959605
   
   in the mass-spec context:
   * V. Asgeirsson, C. Bauer and S. Grimme, Chem. Sci., 2017, 8, 4879.
     DOI: 10.1039/c7sc00601b
   * J. Koopman and S. Grimme, ACS Omega 2019, 4, 12, 15120-15133.
     DOI: 10.1021/acsomega.9b02011
   
   for metadynamics refer to:
   * S. Grimme, J. Chem. Theory Comput., 2019, 155, 2847-2862
     DOI: 10.1021/acs.jctc.9b00143
   
   for SPH calculations refer to:
   * S. Spicher and S. Grimme, J. Chem. Theory Comput., 2021, 17, 1701-1714
     DOI: 10.1021/acs.jctc.0c01306
   
   with help from (in alphabetical order)
   P. Atkinson, C. Bannwarth, F. Bohle, G. Brandenburg, E. Caldeweyher
   M. Checinski, S. Dohm, S. Ehlert, S. Ehrlich, I. Gerasimov, C. Hölzer
   A. Katbashev, J. Koopman, C. Lavigne, S. Lehtola, F. März, M. Müller,
   F. Musil, H. Neugebauer, J. Pisarek, C. Plett, P. Pracht, F. Pultar,
   J. Seibert, P. Shushkov, S. Spicher, M. Stahn, M. Steiner, T. Strunk,
   J. Stückrath, T. Rose, and J. Unsleber
   
 * started run on 2025/05/27 at 09:37:42.669     

           -------------------------------------------------
          |                Calculation Setup                |
           -------------------------------------------------

          program call               : xtb substructure_25.pdb --gfnff --input xtb_settings.inp --opt vtight --alpb water --verbose
          coordinate file            : substructure_25.pdb
          xtbhome directory          : /home/dargen3
          path for xtb               : /home/dargen3
          xcontrol input file        : xtb_settings.inp
          omp threads                :                     1

$$$$$$$$$$$$$$$$$$$$$$$$$$$$$$$$$$$$$$$$$$$$$$$$$$$$$$$$$$$$$$$$$$$$$$$$
 CONSTRAINTS & SCANS: DEBUG SECTION
$$$$$$$$$$$$$$$$$$$$$$$$$$$$$$$$$$$$$$$$$$$$$$$$$$$$$$$$$$$$$$$$$$$$$$$$
   ID    Z sym.   atoms
    1    6  C     1, 2, 8-10, 16, 17, 23, 24, 30, 31, 37, 38, 44
    2    8  O     3, 11, 18, 25, 32, 39
    3    1  H     4-6, 12-14, 19-21, 26-28, 33-35, 40-42, 45-47
    4    7  N     7, 15, 22, 29, 36, 43
> constrain
-> atoms: 1, 2, 3, 4, 5, 6, 7, 8, 9, 10, 11, 12, 13, 14, 15, 16, 17, 18, 19, 20, 21, 23, 29, 30, 31, 32, 33, 34, 35, 36, 37, 38, 39, 40, 41, 42, 43, 44, 45, 46, 47
--> 1: 1
--> 2: 2
--> 3: 3
--> 4: 4
--> 5: 5
--> 6: 6
--> 7: 7
--> 8: 8
--> 9: 9
--> 10: 10
--> 11: 11
--> 12: 12
--> 13: 13
--> 14: 14
--> 15: 15
--> 16: 16
--> 17: 17
--> 18: 18
--> 19: 19
--> 20: 20
--> 21: 21
--> 22: 23
--> 23: 29
--> 24: 30
--> 25: 31
--> 26: 32
--> 27: 33
--> 28: 34
--> 29: 35
--> 30: 36
--> 31: 37
--> 32: 38
--> 33: 39
--> 34: 40
--> 35: 41
--> 36: 42
--> 37: 43
--> 38: 44
--> 39: 45
--> 40: 46
--> 41: 47
-> force constant=1.0
$$$$$$$$$$$$$$$$$$$$$$$$$$$$$$$$$$$$$$$$$$$$$$$$$$$$$$$$$$$$$$$$$$$$$$$$

molecular fragmentation (1/2 indicates fragments):
12122211111111111111111111111111111111111111111
# atoms in fragment 1/2:    43     4
 fragment masses (1/2) :      354.32       15.03
CMA distance (Bohr)    :  16.310
constraining FC (au)   :  1.0000
           -------------------------------------------------
          |                   Constraints                   |
           -------------------------------------------------

 * 41 constrained atom positions
   positions refering to input geometry

     #   Z                                   position/Å      displ./Å
     1   6 C    -10.1280009   -13.2300012     7.6570007     0.0000000
     2   6 C     -8.6210008   -14.0990013     9.4470009     0.0000000
     3   8 O    -10.0090009   -14.1080013     6.8290006     0.0000000
     4   1 H     -8.4030008   -14.9850014     8.8500008     0.0000000
     5   1 H     -7.8610007   -13.3520012     9.2190009     0.0000000
     6   1 H     -8.5340008   -14.3710013    10.4990010     0.0000000
     7   7 N    -10.3660010   -11.9110011     7.3350007     0.0000000
     8   6 C    -10.2890010   -11.4620011     5.9580006     0.0000000
     9   6 C     -8.8900008   -11.7520011     5.4410005     0.0000000
    10   6 C    -10.7240010    -9.9980009     5.7600005     0.0000000
    11   8 O     -7.9420007   -11.1750010     5.9350006     0.0000000
    12   1 H    -10.2910010   -11.1810010     8.0430007     0.0000000
    13   1 H    -10.9880010   -12.1070011     5.3970005     0.0000000
    14   1 H    -10.6380010    -9.7810009     4.6800004     0.0000000
    15   7 N     -8.7090008   -12.7310012     4.4680004     0.0000000
    16   6 C     -7.4510007   -13.4620012     4.4550004     0.0000000
    17   6 C     -6.7420006   -13.4540012     3.1620003     0.0000000
    18   8 O     -7.1760007   -14.0630013     2.2070002     0.0000000
    19   1 H     -9.5070009   -13.2900012     4.1630004     0.0000000
    20   1 H     -6.8160006   -13.0240012     5.2360005     0.0000000
    21   1 H     -7.6380007   -14.5000013     4.7670004     0.0000000
    23   6 C     -4.7940004   -12.6990012     1.9410002     0.0000000
    29   7 N     -3.6010003   -10.7230010     0.8870001     0.0000000
    30   6 C     -2.2890002   -11.3470011     0.7820001     0.0000000
    31   6 C     -1.8090002   -11.4000011    -0.6350001     0.0000000
    32   8 O     -2.3660002   -12.1320011    -1.4240001     0.0000000
    33   1 H     -3.6690003    -9.8310009     0.4030000     0.0000000
    34   1 H     -1.5800001   -10.8030010     1.4130001     0.0000000
    35   1 H     -2.3170002   -12.3740011     1.1660001     0.0000000
    36   7 N     -0.7480001   -10.6010010    -0.9970001     0.0000000
    37   6 C     -0.3730000   -10.4770010    -2.3880002     0.0000000
    38   6 C     -0.7490001    -9.1100008    -2.9140003     0.0000000
    39   8 O     -1.7880002    -8.6150008    -2.5280002     0.0000000
    40   1 H     -0.4280000    -9.8410009    -0.3940000     0.0000000
    41   1 H      0.6970001   -10.6610010    -2.4810002     0.0000000
    42   1 H     -0.9120001   -11.2410010    -2.9480003     0.0000000
    43   7 N      0.0460000    -8.4400008    -3.8310004     0.0000000
    44   6 C      1.3240001    -8.8870008    -4.3620004     0.0000000
    45   1 H     -0.2960000    -7.5770007    -4.2440004     0.0000000
    46   1 H      2.1290002    -8.5380008    -3.7370003     0.0000000
    47   1 H      1.3440001    -9.9940009    -4.3580004     0.0000000

     applying 820 atom pairwise harmonic potentials
       applied force constant per pair:     0.0250000
     effective force constant per atom:     1.0000000
         constraining energy/grad norm:     0.0000000     0.0000000

     total constraint energy/grad norm:     0.0000000     0.0000000

          charge from pdb residues: 0

          entering GFN-FF setup routine... 47

          ==================== Thresholds ====================
          CN  :   150.00000
          rep :   500.00000
          disp:  2500.00000
          HB1 :   250.00000
          HB2 :   450.00000

          Pauling EN used:
          Z : 1  EN :  2.20
          Z : 6  EN :  2.55
          Z : 7  EN :  3.04
          Z : 8  EN :  3.44
          electric field strengths (au): 0.000

           ------------------------------------------------- 
          |           Force Field Initialization            |
           ------------------------------------------------- 

          distances ...
          ----------------------------------------
          generating topology and atomic info file ...
          pair mat ...
          computing topology distances matrix with Floyd-Warshall algo ...
          making topology EEQ charges ...
          #fragments for EEQ constrain from pdb file: 7
          ----------------------------------------
          generating topology and atomic info file ...
          pair mat ...
          computing topology distances matrix with Floyd-Warshall algo ...
          making topology EEQ charges ...
          #fragments for EEQ constrain from pdb file: 7
          rings ...
          # BATM   348
          # H in HB   21
          doing iterative Hueckel for 8 subsystem(s) ...
          iterative Hueckel run to get P ...
Hueckel system :  1 charge :   0 ndim/Nel :    3    3   eps(HOMO/LUMO)   -0.975876   -0.975876
Hueckel system :  3 charge :   0 ndim/Nel :    3    4   eps(HOMO/LUMO)   -0.916490   -0.916490
Hueckel system :  5 charge :   0 ndim/Nel :    3    4   eps(HOMO/LUMO)   -0.913323   -0.913323
Hueckel system :  6 charge :   0 ndim/Nel :    3    4   eps(HOMO/LUMO)   -0.912140   -0.912140
Hueckel system :  7 charge :   0 ndim/Nel :    3    4   eps(HOMO/LUMO)   -0.910058   -0.910058
Hueckel system :  8 charge :   0 ndim/Nel :    4    5   eps(HOMO/LUMO)    1.305313    1.305313
WARNING: probably wrong pi occupation for system 8. Second attempt with Nel=Nel-1!
 at,nb,topo%hyb,Npiel:          38  C             3           2           1
 at,nb,topo%hyb,Npiel:          39  O             1           2           1
 at,nb,topo%hyb,Npiel:          43  N             3           3           2
 at,nb,topo%hyb,Npiel:          44  C             3           2           1

          eigenvalues
 #    :           1          2          3          4
 occ. :        2.000      1.987      0.013      0.000
 eps  :        -4.349     -2.183      1.305      3.389
Hueckel system :  8 charge :   0 ndim/Nel :    4    4   eps(HOMO/LUMO)   -2.182833    1.305313

  atom   neighbors  erfCN metchar sp-hybrid imet pi  qest     coordinates
    1   C      2    1.94   0.00        -2    0    1  -0.027  -19.139146  -25.001077   14.469633
    2   C      3    2.78   0.00         3    0    0  -0.068  -16.291329  -26.643249   17.852243
    3   O      1    0.98   0.00         2    0    1  -0.246  -18.914269  -26.660256   12.904940
    4   H      1    0.97   0.00         0    0    0   0.114  -15.879369  -28.317546   16.724076
    5   H      1    0.97   0.00         0    0    0   0.114  -14.855137  -25.231623   17.421385
    6   H      1    0.97   0.00         0    0    0   0.114  -16.126923  -27.157254   19.840235
    7   N      3    2.79   0.00        -3    0    1  -0.065  -19.588901  -22.508528   13.861141
    8   C      4    3.49   0.00         3    0    0   0.090  -19.443392  -21.660041   11.258988
    9   C      3    2.80   0.00         2    0    1   0.172  -16.799665  -22.208061   10.282000
   10   C      2    1.91   0.00        -2    0    0  -0.265  -20.265423  -18.893482   10.884822
   11   O      1    0.98   0.00         2    0    1  -0.354  -15.008205  -21.117689   11.215525
   12   H      1    0.98   0.00         0    0    0   0.139  -19.447172  -21.129028   15.199067
   13   H      1    0.97   0.01         0    0    0   0.089  -20.764311  -22.878914   10.198852
   14   H      1    0.97   0.01         0    0    0   0.195  -20.102907  -18.483411    8.843918
   15   N      3    2.79   0.00        -3    0    1  -0.157  -16.457625  -24.058103    8.443296
   16   C      4    3.50   0.00         3    0    0   0.007  -14.080349  -25.439493    8.418730
   17   C      3    2.80   0.00         2    0    1   0.172  -12.740534  -25.424375    5.975314
   18   O      1    0.98   0.00         2    0    1  -0.356  -13.560675  -26.575218    4.170626
   19   H      1    0.98   0.00         0    0    0   0.153  -17.965626  -25.114460    7.866930
   20   H      1    0.97   0.00         0    0    0   0.091  -12.880373  -24.611793    9.894606
   21   H      1    0.97   0.01         0    0    0   0.091  -14.433728  -27.401029    9.008324
   22   N      3    2.80   0.00        -3    0    1  -0.163  -10.508767  -24.095898    5.926181
   23   C      4    3.50   0.00         3    0    0   0.005   -9.059347  -23.997632    3.667958
   24   C      3    2.79   0.00         2    0    1   0.175   -9.000766  -21.361464    2.579476
   25   O      1    0.98   0.00         2    0    1  -0.354  -10.973640  -20.193613    2.486880
   26   H      1    0.98   0.00         0    0    0   0.152  -10.081689  -22.765531    7.260328
   27   H      1    0.97   0.00         0    0    0   0.092   -7.186628  -24.742184    4.036455
   28   H      1    0.97   0.01         0    0    0   0.092   -9.972085  -25.256190    2.277120
   29   N      3    2.79   0.00        -3    0    1  -0.166   -6.804904  -20.263533    1.676187
   30   C      4    3.49   0.00         3    0    0   0.004   -4.325583  -21.442722    1.477766
   31   C      3    2.80   0.00         2    0    1   0.178   -3.418515  -21.542878   -1.199976
   32   O      1    0.98   0.00         2    0    1  -0.354   -4.471092  -22.926157   -2.690970
   33   H      1    0.98   0.00         0    0    0   0.151   -6.933405  -18.577898    0.761560
   34   H      1    0.97   0.00         0    0    0   0.093   -2.985767  -20.414711    2.670183
   35   H      1    0.97   0.00         0    0    0   0.093   -4.378495  -23.383471    2.203421
   36   N      3    2.79   0.00        -3    0    1  -0.170   -1.413515  -20.032987   -1.884057
   37   C      4    3.49   0.00         3    0    0   0.006   -0.704868  -19.798661   -4.512666
   38   C      3    2.79   0.00         2    0    1   0.195   -1.415405  -17.215405   -5.506662
   39   O      1    0.98   0.00         2    0    1  -0.357   -3.378830  -16.279991   -4.777228
   40   H      1    0.98   0.00         0    0    0   0.147   -0.808803  -18.596795   -0.744552
   41   H      1    0.97   0.00         0    0    0   0.090    1.317139  -20.146370   -4.688411
   42   H      1    0.97   0.00         0    0    0   0.090   -1.723430  -21.242411   -5.570913
   43   N      3    2.79   0.00         3    0    1  -0.226    0.086927  -15.949288   -7.239541
   44   C      3    2.78   0.00         2    0    1  -0.008    2.501997  -16.793996   -8.242985
   45   H      1    0.98   0.00         0    0    0   0.123   -0.559359  -14.318455   -8.019998
   46   H      1    0.97   0.00         0    0    0   0.055    4.023227  -16.134482   -7.061907
   47   H      1    0.97   0.01         0    0    0   0.055    2.539792  -18.885923   -8.235426

molecular fragment  # atoms  topo charge
       1             6             0.000
       2             8             0.000
       3             7            -0.000
       4             7            -0.000
       5             7             0.000
       6             7             0.000
       7             5            -0.000


          #atoms :   47
          #bonds :   45

 bond atoms        type  in ring    R      R0    piBO    fqq  kbond(tot)  alp
 O  C     3    1      2    0     1.213   0.997   0.790   1.000  -0.239   0.584
 H  C     4    2      1    0     1.090   0.938 -99.000   1.047  -0.169   0.482
 H  C     5    2      1    0     1.090   0.938 -99.000   1.047  -0.169   0.482
 H  C     6    2      1    0     1.090   0.938 -99.000   1.047  -0.169   0.482
 N  C     7    1      2    0     1.378   1.214   0.510   1.006  -0.227   0.524
 C  N     8    7      1    0     1.450   1.326 -99.000   1.047  -0.153   0.496
 C  C     9    8      1    0     1.519   1.332 -99.000   1.000  -0.160   0.475
 C  C    10    8      1    0     1.540   1.283 -99.000   1.047  -0.168   0.475
 O  C    11    9      2    0     1.215   1.031   0.857   1.047  -0.262   0.584
 H  N    12    7      1    0     1.020   0.890 -99.000   1.047  -0.176   0.551
 H  C    13    8      1    0     1.104   0.976 -99.000   1.000  -0.161   0.482
 H  C    14   10      1    0     1.105   0.902 -99.000   1.047  -0.182   0.490
 N  C    15    9      2    0     1.392   1.263   0.502   1.047  -0.234   0.524
 C  N    16   15      1    0     1.455   1.326 -99.000   1.036  -0.151   0.496
 C  C    17   16      1    0     1.475   1.333 -99.000   1.010  -0.162   0.475
 O  C    18   17      2    0     1.213   1.031   0.857   1.047  -0.262   0.584
 H  N    19   15      1    0     1.021   0.890 -99.000   1.047  -0.176   0.551
 H  C    20   16      1    0     1.098   0.977 -99.000   1.016  -0.164   0.482
 H  C    21   16      1    0     1.100   0.977 -99.000   1.016  -0.164   0.482
 N  C    22   17      2    0     1.375   1.264   0.502   1.047  -0.234   0.524
 C  N    23   22      1    0     1.421   1.326 -99.000   1.033  -0.151   0.496
 C  C    24   23      1    0     1.510   1.332 -99.000   1.013  -0.162   0.475
 O  C    25   24      2    0     1.214   1.031   0.857   1.047  -0.262   0.584
 H  N    26   22      1    0     1.022   0.890 -99.000   1.047  -0.176   0.551
 H  C    27   23      1    0     1.084   0.977 -99.000   1.018  -0.164   0.482
 H  C    28   23      1    0     1.104   0.977 -99.000   1.018  -0.164   0.482
 N  C    29   24      2    0     1.384   1.263   0.503   1.047  -0.234   0.524
 C  N    30   29      1    0     1.457   1.326 -99.000   1.032  -0.151   0.496
 C  C    31   30      1    0     1.497   1.332 -99.000   1.015  -0.163   0.475
 O  C    32   31      2    0     1.212   1.031   0.856   1.047  -0.262   0.584
 H  N    33   29      1    0     1.017   0.890 -99.000   1.047  -0.176   0.551
 H  C    34   30      1    0     1.094   0.976 -99.000   1.019  -0.164   0.482
 H  C    35   30      1    0     1.097   0.976 -99.000   1.019  -0.164   0.482
 N  C    36   31      2    0     1.377   1.263   0.503   1.047  -0.234   0.524
 C  N    37   36      1    0     1.446   1.326 -99.000   1.034  -0.151   0.496
 C  C    38   37      1    0     1.512   1.332 -99.000   1.011  -0.162   0.475
 O  C    39   38      2    0     1.214   1.018   0.930   1.047  -0.274   0.584
 H  N    40   36      1    0     1.022   0.890 -99.000   1.047  -0.176   0.551
 H  C    41   37      1    0     1.090   0.977 -99.000   1.018  -0.164   0.482
 H  C    42   37      1    0     1.090   0.977 -99.000   1.018  -0.164   0.482
 N  C    43   38      2    0     1.386   1.291   0.346   1.047  -0.203   0.524
 C  N    44   43      2    0     1.454   1.189   0.906   1.006  -0.302   0.524
 H  N    45   43      1    0     1.016   0.890 -99.000   1.047  -0.176   0.551
 H  C    46   44      1    0     1.077   0.950 -99.000   1.029  -0.179   0.490
 H  C    47   44      1    0     1.107   0.949 -99.000   1.029  -0.179   0.490
          #angl  :   71

 angle atoms        phi0    phi      FC  pi rings
    1    7    3   145.000 123.383   0.084 F   0
    2    5    4   108.600 107.638   0.179 F   0
    2    6    4   108.600 108.040   0.179 F   0
    2    6    5   108.600 108.499   0.179 F   0
    7    8    1   115.000 120.586   0.415 F   0
    7   12    1   115.000 120.673   0.342 F   0
    7   12    8   104.000 115.700   0.183 F   0
    8    9    7   109.500 108.231   0.308 F   0
    8   10    7   109.500 113.663   0.302 F   0
    8   10    9   109.500 113.439   0.303 F   0
    8   13    7   109.500 105.539   0.253 F   0
    8   13    9   109.500 107.367   0.254 F   0
    8   13   10   109.500 108.129   0.249 F   0
    9   11    8   120.000 119.309   0.180 F   0
    9   15    8   120.000 119.457   0.245 F   0
    9   15   11   120.000 121.118   0.177 F   0
   10   14    8   145.000 106.880   0.087 F   0
   15   16    9   115.000 118.162   0.410 F   0
   15   19    9   115.000 119.488   0.334 F   0
   15   19   16   104.000 113.456   0.182 F   0
   16   17   15   109.500 114.885   0.307 F   0
   16   20   15   109.500 107.057   0.253 F   0
   16   20   17   109.500 110.093   0.252 F   0
   16   21   15   109.500 108.941   0.253 F   0
   16   21   17   109.500 109.608   0.252 F   0
   16   21   20   108.600 105.848   0.209 F   0
   17   18   16   120.000 121.037   0.178 F   0
   17   22   16   120.000 115.621   0.243 F   0
   17   22   18   120.000 123.317   0.177 F   0
   22   23   17   115.000 119.892   0.410 F   0
   22   26   17   115.000 121.940   0.334 F   0
   22   26   23   104.000 115.865   0.182 F   0
   23   24   22   109.500 111.457   0.307 F   0
   23   27   22   109.500 109.199   0.253 F   0
   23   27   24   109.500 112.688   0.251 F   0
   23   28   22   109.500 107.606   0.253 F   0
   23   28   24   109.500 108.187   0.251 F   0
   23   28   27   108.600 107.495   0.209 F   0
   24   25   23   120.000 117.911   0.178 F   0
   24   29   23   120.000 122.469   0.243 F   0
   24   29   25   120.000 119.617   0.176 F   0
   29   30   24   115.000 126.953   0.409 F   0
   29   33   24   115.000 118.442   0.334 F   0
   29   33   30   104.000 113.679   0.182 F   0
   30   31   29   109.500 111.851   0.307 F   0
   30   34   29   109.500 109.217   0.253 F   0
   30   34   31   109.500 110.840   0.251 F   0
   30   35   29   109.500 110.664   0.253 F   0
   30   35   31   109.500 107.844   0.251 F   0
   30   35   34   108.600 106.274   0.209 F   0
   31   32   30   120.000 119.359   0.178 F   0
   31   36   30   120.000 118.390   0.242 F   0
   31   36   32   120.000 122.250   0.176 F   0
   36   37   31   115.000 120.172   0.409 F   0
   36   40   31   115.000 121.198   0.333 F   0
   36   40   37   104.000 115.011   0.182 F   0
   37   38   36   109.500 110.344   0.307 F   0
   37   41   36   109.500 108.801   0.253 F   0
   37   41   38   109.500 111.538   0.251 F   0
   37   42   36   109.500 107.813   0.253 F   0
   37   42   38   109.500 109.390   0.251 F   0
   37   42   41   108.600 108.869   0.209 F   0
   38   39   37   120.000 118.089   0.177 F   0
   38   43   37   120.000 121.627   0.241 F   0
   38   43   39   120.000 120.272   0.174 F   0
   43   44   38   113.000 126.649   0.042 F   0
   43   45   38   113.000 119.102   0.211 F   0
   43   45   44   113.000 114.107   0.105 F   0
   44   46   43   120.000 110.198   0.204 F   0
   44   47   43   120.000 108.776   0.204 F   0
   44   47   46   120.000 107.958   0.167 F   0
 torsion atoms        nrot   rings    phi0    phi      FC
    7    1    8    3   2      0     180.000   9.350   0.639
    7    1   12    3   2      0     180.000 168.784   0.948
    8    7    9    1   3      0     180.000  58.985   0.024
    8    7    9   12   3      0     180.000 101.423   0.033
    8    7   10    1   3      0     180.000 174.033   0.026
    8    7   10   12   3      0     180.000  25.559   0.035
    8    7   13    1   3      0     180.000  55.710   0.035
    8    7   13   12   3      0     180.000 143.882   0.046
    9    8   11    7   3      0     180.000  64.944   0.075
    9    8   11   10   3      0     180.000  62.167   0.097
    9    8   11   13   3      0     180.000 178.432   0.131
    9    8   15    7   3      0     180.000 111.189   0.047
    9    8   15   10   3      0     180.000 121.700   0.061
    9    8   15   13   3      0     180.000   2.298   0.082
   10    8   14    7   1      0     180.000 179.108   0.143
   10    8   14    9   1      0     180.000  56.680   0.176
   10    8   14   13   1      0     180.000  62.285   0.251
   15    9   16    8   2      0     180.000 149.719   0.600
   15    9   16   11   2      0     180.000  26.343   0.813
   15    9   19    8   2      0     180.000   4.491   0.890
   15    9   19   11   2      0     180.000 171.570   1.207
   16   15   17    9   3      0     180.000 126.253   0.022
   16   15   17   19   3      0     180.000  86.509   0.032
   16   15   20    9   3      0     180.000   3.675   0.032
   16   15   20   19   3      0     180.000 150.913   0.045
   16   15   21    9   3      0     180.000 110.359   0.032
   16   15   21   19   3      0     180.000  36.878   0.045
   17   16   18   15   3      0     180.000  69.907   0.066
   17   16   18   20   3      0     180.000 169.164   0.115
   17   16   18   21   3      0     180.000  53.125   0.115
   17   16   22   15   3      0     180.000 111.824   0.041
   17   16   22   20   3      0     180.000   9.105   0.072
   17   16   22   21   3      0     180.000 125.145   0.072
   22   17   23   16   2      0     180.000 179.128   0.606
   22   17   23   18   2      0     180.000   0.902   0.821
   22   17   26   16   2      0     180.000  18.817   0.899
   22   17   26   18   2      0     180.000 162.957   1.218
   23   22   24   17   3      0     180.000 112.991   0.022
   23   22   24   26   3      0     180.000  50.117   0.032
   23   22   27   17   3      0     180.000 121.861   0.032
   23   22   27   26   3      0     180.000  75.031   0.045
   23   22   28   17   3      0     180.000   5.471   0.032
   23   22   28   26   3      0     180.000 168.579   0.045
   24   23   25   22   3      0     180.000  44.877   0.066
   24   23   25   27   3      0     180.000 168.058   0.115
   24   23   25   28   3      0     180.000  73.236   0.115
   24   23   29   22   3      0     180.000 135.754   0.041
   24   23   29   27   3      0     180.000  12.573   0.072
   24   23   29   28   3      0     180.000 106.133   0.072
   29   24   30   23   2      0     180.000   3.938   0.612
   29   24   30   25   2      0     180.000 175.421   0.830
   29   24   33   23   2      0     180.000 172.177   0.908
   29   24   33   25   2      0     180.000   7.181   1.231
   30   29   31   24   3      0     180.000 118.805   0.022
   30   29   31   33   3      0     180.000  49.910   0.032
   30   29   34   24   3      0     180.000 118.123   0.032
   30   29   34   33   3      0     180.000  73.163   0.045
   30   29   35   24   3      0     180.000   1.467   0.032
   30   29   35   33   3      0     180.000 170.181   0.045
   31   30   32   29   3      0     180.000  68.933   0.066
   31   30   32   34   3      0     180.000 168.919   0.115
   31   30   32   35   3      0     180.000  52.972   0.115
   31   30   36   29   3      0     180.000 110.619   0.041
   31   30   36   34   3      0     180.000  11.529   0.072
   31   30   36   35   3      0     180.000 127.476   0.072
   36   31   37   30   2      0     180.000 171.249   0.620
   36   31   37   32   2      0     180.000   8.290   0.840
   36   31   40   30   2      0     180.000  13.764   0.920
   36   31   40   32   2      0     180.000 165.775   1.246
   37   36   38   31   3      0     180.000 107.947   0.022
   37   36   38   40   3      0     180.000  50.864   0.032
   37   36   41   31   3      0     180.000 129.381   0.032
   37   36   41   40   3      0     180.000  71.807   0.045
   37   36   42   31   3      0     180.000  11.463   0.032
   37   36   42   40   3      0     180.000 170.274   0.045
   38   37   39   36   3      0     180.000  37.463   0.066
   38   37   39   41   3      0     180.000 158.517   0.115
   38   37   39   42   3      0     180.000  80.986   0.115
   38   37   43   36   3      0     180.000 143.792   0.041
   38   37   43   41   3      0     180.000  22.738   0.072
   38   37   43   42   3      0     180.000  97.759   0.072
   43   38   44   37   2      0     180.000   2.745   0.343
   43   38   44   39   2      0     180.000 178.537   0.465
   43   38   45   37   2      0     180.000 172.654   0.489
   43   38   45   39   2      0     180.000   6.064   0.662
   44   43   46   38   2      0     180.000  89.639   1.385
   44   43   46   45   2      0     180.000  94.766   1.974
   44   43   47   38   2      0     180.000  28.529   1.385
   44   43   47   45   2      0     180.000 147.066   1.974
 out-of-plane atoms          phi0    phi      FC
    7   12    1    8          0.000 -17.603   0.527
    9   11   15    8          0.000   3.429  23.813
   15   19    9   16          0.000  30.186   0.171
   17   18   22   16          0.000  -1.600  23.776
   22   26   17   23          0.000  15.493   0.147
   24   25   29   23          0.000  -0.541  23.962
   29   33   24   30          0.000   9.374   0.135
   31   32   36   30          0.000   0.406  24.122
   36   40   31   37          0.000  19.332   0.117
   38   39   43   37          0.000  -1.091  28.541
   43   45   38   44          0.000   3.690  -0.051
   44   46   47   43          0.000  55.431   0.552
          #tors  :   101
          #nmol  :   7
          #optfrag :   7

 GFN-FF setup done.

           ------------------------------------------------- 
          |                   G F N - F F                   |
          |          A general generic force-field          |
          |                  Version 1.0.3                  | 
           ------------------------------------------------- 
      * Solvation model:               ALPB
        Solvent                        water
        Parameter file                 internal GFN-FF/ALPB
        Dielectric constant                8.0200E+01
        Reference state                gsolv [1 M gas/solution]
        Free energy shift                  3.6494E-04 Eh       2.2900E-01 kcal/mol
        Temperature                        2.9815E+02 K
        Density                            1.0000E+00 kg/L
        Solvent mass                       1.8000E+01 g/mol
        Interaction kernel             P16
        Born radius scaling (c1)           1.5056E+00
        Born radii integrator          GBOBC
        Born offset                        0.0000E+00 a0       0.0000E+00 AA
        H-bond correction              true
        Ion screening                  false
        Surface tension                    1.0000E-05 Eh       1.5569E+01 dyn/cm
        Grid points                               230 per atom
          Number of HB bonds (bound hydrogen)     701
          Number of HB bonds (unbound hydrogen)   95
          Number of XB bonds                      0

 E+G (total)                   0 d,  0 h,  0 min,  0.001 sec
 distance/D3 list               ...        0 min,  0.000 sec (  0.415%)
 non bonded repulsion           ...        0 min,  0.000 sec (  1.923%)
 dCN                            ...        0 min,  0.000 sec (  5.141%)
 EEQ energy and q               ...        0 min,  0.000 sec (  5.776%)
 D3                             ...        0 min,  0.000 sec (  8.790%)
 EEQ gradient                   ...        0 min,  0.000 sec (  4.467%)
 bonds                          ...        0 min,  0.000 sec (  1.265%)
 bend and torsion               ...        0 min,  0.000 sec (  3.158%)
 bonded ATM                     ...        0 min,  0.000 sec (  1.250%)
 HB/XB (incl list setup)        ...        0 min,  0.000 sec ( 11.797%)
 GBSA                           ...        0 min,  0.001 sec ( 58.615%)

         :::::::::::::::::::::::::::::::::::::::::::::::::::::
         ::                     SUMMARY                     ::
         :::::::::::::::::::::::::::::::::::::::::::::::::::::
         :: total energy              -8.151735337091 Eh    ::
         :: total w/o Gsolv           -8.088979021112 Eh    ::
         :: total w/o Gsasa/hb        -8.139589035637 Eh    ::
         :: gradient norm              0.193202425912 Eh/a0 ::
         ::.................................................::
         :: bond energy               -8.167878731176 Eh    ::
         :: angle energy               0.036929025768 Eh    ::
         :: torsion energy             0.025276135851 Eh    ::
         :: repulsion energy           0.502082796811 Eh    ::
         :: electrostat energy        -0.440233836448 Eh    ::
         :: dispersion energy         -0.032623183441 Eh    ::
         :: HB energy                 -0.000826297080 Eh    ::
         :: XB energy                  0.000000000000 Eh    ::
         :: bonded atm energy         -0.011704931398 Eh    ::
         :: external energy            0.000000000000 Eh    ::
         :: -> Gsolv                  -0.062756315979 Eh    ::
         ::    -> Gborn               -0.050610014524 Eh    ::
         ::    -> Gsasa                0.009437778786 Eh    ::
         ::    -> Ghb                 -0.021949019495 Eh    ::
         ::    -> Gshift               0.000364939255 Eh    ::
         :: add. restraining           0.000000000000 Eh    ::
         :: total charge              -0.000000000000 e     ::
         ::.................................................::
         :: atomisation energy         0.000000000000 Eh    ::
         :::::::::::::::::::::::::::::::::::::::::::::::::::::

      ----------------------------------------------------------- 
     |                   =====================                   |
     |                        A N C O P T                        |
     |                   =====================                   |
     |               Approximate Normal Coordinate               |
     |                Rational Function Optimizer                |
      ----------------------------------------------------------- 

          ...................................................
          :                      SETUP                      :
          :.................................................:
          :   optimization level         verytight          :
          :   max. optcycles                    10          :
          :   ANC micro-cycles                  10          :
          :   degrees of freedom               135          :
          :.................................................:
          :   RF solver                   davidson          :
          :   write xtbopt.log                true          :
          :   linear?                        false          :
          :   energy convergence         0.1000000E-06 Eh   :
          :   grad. convergence          0.2000000E-03 Eh/α :
          :   maxmium RF displ.          1.0000000          :
          :   Hlow (freq-cutoff)         0.1000000E-01      :
          :   Hmax (freq-cutoff)         5.0000000          :
          :   S6 in model hess.         20.0000000          :
          ...................................................

generating ANC from model Hessian ...
Using GFN-FF Lindh-Hessian
 Shifting diagonal of input Hessian by    0.0000000000000000     
 Lowest  eigenvalues of input Hessian
    0.000000    0.000000    0.000000    0.000000    0.000000    0.000000
    0.017741    0.024574    0.025444    0.032253    0.048235    0.065199
    0.076648    0.085799    0.096919    0.103734    0.109818    0.114541
 Highest eigenvalues
    3.371761    3.708177    3.740089    4.001010    4.193091    4.322748


........................................................................
.............................. CYCLE    1 ..............................
........................................................................
     iter. time                 ...        0 min,  0.001 sec
 * total energy  :    -8.1517353 Eh     change        0.0000000E+00 Eh
   gradient norm :     0.1932024 Eh/α   predicted     0.0000000E+00 (    NaN%)
   displ. norm   :     0.1464058 α      lambda       -0.1880662E-01
   maximum displ.:     0.0611600 α      in ANC's #30, #21, #39, ...

........................................................................
.............................. CYCLE    2 ..............................
........................................................................
     iter. time                 ...        0 min,  0.001 sec
 * total energy  :    -8.1644399 Eh     change       -0.1270459E-01 Eh
   gradient norm :     0.0730604 Eh/α   predicted    -0.9604864E-02 ( -24.40%)
   displ. norm   :     0.0946272 α      lambda       -0.4639617E-02
   maximum displ.:     0.0438588 α      in ANC's #30, #39, #26, ...

........................................................................
.............................. CYCLE    3 ..............................
........................................................................
     iter. time                 ...        0 min,  0.001 sec
 * total energy  :    -8.1670065 Eh     change       -0.2566609E-02 Eh
   gradient norm :     0.0189639 Eh/α   predicted    -0.2340642E-02 (  -8.80%)
   displ. norm   :     0.0260008 α      lambda       -0.2607373E-03
   maximum displ.:     0.0101050 α      in ANC's #30, #45, #13, ...

........................................................................
.............................. CYCLE    4 ..............................
........................................................................
     iter. time                 ...        0 min,  0.001 sec
 * total energy  :    -8.1671901 Eh     change       -0.1835476E-03 Eh
   gradient norm :     0.0096562 Eh/α   predicted    -0.1369695E-03 ( -25.38%)
   displ. norm   :     0.0164883 α      lambda       -0.8443958E-04
   maximum displ.:     0.0072940 α      in ANC's #1, #45, #13, ...

........................................................................
.............................. CYCLE    5 ..............................
........................................................................
     iter. time                 ...        0 min,  0.001 sec
 * total energy  :    -8.1672402 Eh     change       -0.5009660E-04 Eh
   gradient norm :     0.0030987 Eh/α   predicted    -0.4233324E-04 ( -15.50%)
   displ. norm   :     0.0071299 α      lambda       -0.1087828E-04
   maximum displ.:     0.0042584 α      in ANC's #1, #45, #2, ...

........................................................................
.............................. CYCLE    6 ..............................
........................................................................
     iter. time                 ...        0 min,  0.001 sec
 * total energy  :    -8.1672478 Eh     change       -0.7607459E-05 Eh
   gradient norm :     0.0014292 Eh/α   predicted    -0.5652645E-05 ( -25.70%)
   displ. norm   :     0.0090888 α      lambda       -0.4024557E-05
   maximum displ.:     0.0060550 α      in ANC's #1, #45, #2, ...

........................................................................
.............................. CYCLE    7 ..............................
........................................................................
     iter. time                 ...        0 min,  0.001 sec
 * total energy  :    -8.1672505 Eh     change       -0.2707697E-05 Eh
   gradient norm :     0.0011665 Eh/α   predicted    -0.2039215E-05 ( -24.69%)
   displ. norm   :     0.0026481 α      lambda       -0.5667063E-06
   maximum displ.:     0.0016984 α      in ANC's #1, #4, #3, ...

........................................................................
.............................. CYCLE    8 ..............................
........................................................................
     iter. time                 ...        0 min,  0.001 sec
 * total energy  :    -8.1672513 Eh     change       -0.8416662E-06 Eh
   gradient norm :     0.0005215 Eh/α   predicted    -0.3839698E-06 ( -54.38%)
   displ. norm   :     0.0061915 α      lambda       -0.6275692E-06
   maximum displ.:     0.0046029 α      in ANC's #1, #4, #3, ...

........................................................................
.............................. CYCLE    9 ..............................
........................................................................
     iter. time                 ...        0 min,  0.001 sec
 * total energy  :    -8.1672519 Eh     change       -0.6087598E-06 Eh
   gradient norm :     0.0003060 Eh/α   predicted    -0.3204995E-06 ( -47.35%)
   displ. norm   :     0.0048507 α      lambda       -0.2165618E-06
   maximum displ.:     0.0035387 α      in ANC's #1, #3, #4, ...

........................................................................
.............................. CYCLE   10 ..............................
........................................................................
     iter. time                 ...        0 min,  0.001 sec
 * total energy  :    -8.1672522 Eh     change       -0.2685229E-06 Eh
   gradient norm :     0.0003763 Eh/α   predicted    -0.1117494E-06 ( -58.38%)
   displ. norm   :     0.0108604 α      lambda       -0.4365754E-06
   maximum displ.:     0.0077804 α      in ANC's #1, #3, #4, ...

   *** FAILED TO CONVERGE GEOMETRY OPTIMIZATION IN 10 ITERATIONS ***


 ANCopt (total)                0 d,  0 h,  0 min,  0.011 sec
 optimizer setup                ...        0 min,  0.000 sec (  0.807%)
 model hessian                  ...        0 min,  0.000 sec (  3.504%)
 ANC generation                 ...        0 min,  0.001 sec (  9.949%)
 coordinate transformation      ...        0 min,  0.000 sec (  0.430%)
 single point calculation       ...        0 min,  0.008 sec ( 76.131%)
 optimization log               ...        0 min,  0.001 sec (  4.857%)
 hessian update                 ...        0 min,  0.000 sec (  0.614%)
 rational function              ...        0 min,  0.000 sec (  2.208%)

================
 final structure:
================
ATOM      1  C   ALA A   7     -10.150 -13.216   7.637  1.00  0.00           C  
ATOM      2  CB  ALA A   7      -8.596 -14.105   9.456  1.00  0.00           C  
ATOM      3  O   ALA A   7      -9.998 -14.118   6.838  1.00  0.00           O  
ATOM      4  HB1 ALA A   7      -8.406 -14.976   8.855  1.00  0.00           H  
ATOM      5  HB2 ALA A   7      -7.866 -13.353   9.219  1.00  0.00           H  
ATOM      6  HB3 ALA A   7      -8.539 -14.367  10.498  1.00  0.00           H  
ATOM      7  N   VAL A   8     -10.366 -11.915   7.339  1.00  0.00           N  
ATOM      8  CA  VAL A   8     -10.293 -11.453   5.955  1.00  0.00           C  
ATOM      9  C   VAL A   8      -8.888 -11.752   5.442  1.00  0.00           C  
ATOM     10  CB  VAL A   8     -10.753 -10.049   5.718  1.00  0.00           C  
ATOM     11  O   VAL A   8      -7.942 -11.176   5.936  1.00  0.00           O  
ATOM     12  H   VAL A   8     -10.285 -11.180   8.048  1.00  0.00           H  
ATOM     13  HA  VAL A   8     -10.987 -12.112   5.398  1.00  0.00           H  
ATOM     14  HB  VAL A   8     -10.608  -9.737   4.724  1.00  0.00           H  
ATOM     15  N   GLY A   9      -8.707 -12.730   4.471  1.00  0.00           N  
ATOM     16  CA  GLY A   9      -7.451 -13.464   4.461  1.00  0.00           C  
ATOM     17  C   GLY A   9      -6.742 -13.453   3.162  1.00  0.00           C  
ATOM     18  O   GLY A   9      -7.175 -14.064   2.209  1.00  0.00           O  
ATOM     19  H   GLY A   9      -9.506 -13.290   4.164  1.00  0.00           H  
ATOM     20  HA2 GLY A   9      -6.815 -13.025   5.237  1.00  0.00           H  
ATOM     21  HA3 GLY A   9      -7.637 -14.501   4.768  1.00  0.00           H  
ATOM     22  N   GLY A  10      -5.566 -12.745   3.133  1.00  0.00           N  
ATOM     23  CA  GLY A  10      -4.800 -12.697   1.932  1.00  0.00           C  
ATOM     24  C   GLY A  10      -4.765 -11.307   1.357  1.00  0.00           C  
ATOM     25  O   GLY A  10      -5.810 -10.692   1.301  1.00  0.00           O  
ATOM     26  H   GLY A  10      -5.349 -12.033   3.833  1.00  0.00           H  
ATOM     27  HA2 GLY A  10      -3.802 -13.088   2.143  1.00  0.00           H  
ATOM     28  HA3 GLY A  10      -5.272 -13.372   1.208  1.00  0.00           H  
ATOM     29  N   GLY A  11      -3.600 -10.724   0.888  1.00  0.00           N  
ATOM     30  CA  GLY A  11      -2.287 -11.354   0.783  1.00  0.00           C  
ATOM     31  C   GLY A  11      -1.809 -11.401  -0.635  1.00  0.00           C  
ATOM     32  O   GLY A  11      -2.366 -12.134  -1.424  1.00  0.00           O  
ATOM     33  H   GLY A  11      -3.667  -9.832   0.405  1.00  0.00           H  
ATOM     34  HA2 GLY A  11      -1.579 -10.806   1.413  1.00  0.00           H  
ATOM     35  HA3 GLY A  11      -2.317 -12.376   1.165  1.00  0.00           H  
ATOM     36  N   GLY A  12      -0.747 -10.604  -0.997  1.00  0.00           N  
ATOM     37  CA  GLY A  12      -0.377 -10.471  -2.388  1.00  0.00           C  
ATOM     38  C   GLY A  12      -0.762  -9.110  -2.920  1.00  0.00           C  
ATOM     39  O   GLY A  12      -1.788  -8.615  -2.528  1.00  0.00           O  
ATOM     40  H   GLY A  12      -0.427  -9.844  -0.394  1.00  0.00           H  
ATOM     41  HA2 GLY A  12       0.696 -10.664  -2.483  1.00  0.00           H  
ATOM     42  HA3 GLY A  12      -0.911 -11.244  -2.948  1.00  0.00           H  
ATOM     43  N   GLY A  13       0.070  -8.470  -3.847  1.00  0.00           N  
ATOM     44  CA  GLY A  13       1.298  -8.870  -4.355  1.00  0.00           C  
ATOM     45  H   GLY A  13      -0.278  -7.571  -4.220  1.00  0.00           H  
ATOM     46  HA2 GLY A  13       2.133  -8.543  -3.742  1.00  0.00           H  
ATOM     47  HA3 GLY A  13       1.345  -9.969  -4.357  1.00  0.00           H  
END

 Bond Distances (Angstroems)
 ---------------------------
C1-O3=1.2143         C1-N7=1.3527         C2-H4=1.0758         C2-H5=1.0748         C2-H6=1.0760         O3-C1=1.2143         
H4-C2=1.0758         H5-C2=1.0748         H6-C2=1.0760         N7-C1=1.3527         N7-C8=1.4615         N7-H12=1.0235        
C8-N7=1.4615         C8-C9=1.5248         C8-C10=1.4966        C8-H13=1.1072        C9-C8=1.5248         C9-O11=1.2132        
C9-N15=1.3900        C10-C8=1.4966        C10-H14=1.0513       O11-C9=1.2132        H12-N7=1.0235        H13-C8=1.1072        
H14-C10=1.0513       N15-C9=1.3900        N15-C16=1.4553       N15-H19=1.0223       C16-N15=1.4553       C16-C17=1.4793       
C16-H20=1.0957       C16-H21=1.0969       C17-C16=1.4793       C17-O18=1.2126       C17-N22=1.3728       O18-C17=1.2126       
H19-N15=1.0223       H20-C16=1.0957       H21-C16=1.0969       N22-C17=1.3728       N22-C23=1.4258       N22-H26=1.0225       
C23-N22=1.4258       C23-C24=1.5042       C23-H27=1.0919       C23-H28=1.0964       C24-C23=1.5042       C24-O25=1.2139       
C24-N29=1.3842       O25-C24=1.2139       H26-N22=1.0225       H27-C23=1.0919       H28-C23=1.0964       N29-C24=1.3842       
N29-C30=1.4607       N29-H33=1.0170       C30-N29=1.4607       C30-C31=1.4969       C30-H34=1.0946       C30-H35=1.0915       
C31-C30=1.4969       C31-O32=1.2122       C31-N36=1.3763       O32-C31=1.2122       H33-N29=1.0170       H34-C30=1.0946       
H35-C30=1.0915       N36-C31=1.3763       N36-C37=1.4460       N36-H40=1.0211       C37-N36=1.4460       C37-C38=1.5107       
C37-H41=1.0937       C37-H42=1.0943       C38-C37=1.5107       C38-O39=1.2047       C38-N43=1.4013       O39-C38=1.2047       
H40-N36=1.0211       H41-C37=1.0937       H42-C37=1.0943       N43-C38=1.4013       N43-C44=1.3874       N43-H45=1.0334       
C44-N43=1.3874       C44-H46=1.0861       C44-H47=1.0996       H45-N43=1.0334       H46-C44=1.0861       H47-C44=1.0996       
 C  H  Rav=1.0884 sigma=0.0133  Rmin=1.0513  Rmax=1.1072    15
 C  C  Rav=1.5021 sigma=0.0139  Rmin=1.4793  Rmax=1.5248     6
 N  H  Rav=1.0233 sigma=0.0050  Rmin=1.0170  Rmax=1.0334     6
 N  C  Rav=1.4095 sigma=0.0368  Rmin=1.3527  Rmax=1.4615    12
 O  C  Rav=1.2118 sigma=0.0033  Rmin=1.2047  Rmax=1.2143     6

 selected bond angles (degree)
 --------------------
N7-C1-O3=126.12                H5-C2-H4=108.85                H6-C2-H4=109.59                H6-C2-H5=110.39                
C8-N7-C1=120.31                H12-N7-C1=121.71               H12-N7-C8=115.15               C9-C8-N7=107.60                
C10-C8-N7=115.55               C10-C8-C9=114.48               H13-C8-N7=104.90               H13-C8-C9=106.94               
H13-C8-C10=106.61              O11-C9-C8=119.25               N15-C9-C8=119.53               N15-C9-O11=121.12              
H14-C10-C8=112.66              

 selected dihedral angles (degree)
 ---------------------------------
C8-N7-C1-O3=353.42            H12-N7-C1-O3=193.39           C9-C8-N7-C1=300.25            C9-C8-N7-H12=101.53           
C10-C8-N7-C1=170.95           C10-C8-N7-H12=332.22          H13-C8-N7-C1= 53.88           H13-C8-N7-H12=215.15          
O11-C9-C8-N7=294.46           O11-C9-C8-C10= 64.37          O11-C9-C8-H13=182.21          N15-C9-C8-N7=110.98           
N15-C9-C8-C10=240.88          N15-C9-C8-H13=358.72          H14-C10-C8-N7=175.28          H14-C10-C8-C9= 49.42          
H14-C10-C8-H13=291.39         

 CMA Distance (Angstroems)
 ---------------------------
R(CMA):  8.6324
           -------------------------------------------------
          |                Final Singlepoint                |
           -------------------------------------------------
         :::::::::::::::::::::::::::::::::::::::::::::::::::::
         ::                     SUMMARY                     ::
         :::::::::::::::::::::::::::::::::::::::::::::::::::::
         :: total energy              -8.167252674190 Eh    ::
         :: total w/o Gsolv           -8.104365642147 Eh    ::
         :: total w/o Gsasa/hb        -8.154863886273 Eh    ::
         :: gradient norm              0.000415017168 Eh/a0 ::
         ::.................................................::
         :: bond energy               -8.199098750869 Eh    ::
         :: angle energy               0.035827646756 Eh    ::
         :: torsion energy             0.027845347164 Eh    ::
         :: repulsion energy           0.510803616887 Eh    ::
         :: electrostat energy        -0.442315357752 Eh    ::
         :: dispersion energy         -0.032633807899 Eh    ::
         :: HB energy                 -0.000834164532 Eh    ::
         :: XB energy                  0.000000000000 Eh    ::
         :: bonded atm energy         -0.011431619700 Eh    ::
         :: external energy            0.000000000000 Eh    ::
         :: -> Gsolv                  -0.062887032042 Eh    ::
         ::    -> Gborn               -0.050498244125 Eh    ::
         ::    -> Gsasa                0.009460688459 Eh    ::
         ::    -> Ghb                 -0.022214415631 Eh    ::
         ::    -> Gshift               0.000364939255 Eh    ::
         :: add. restraining           0.007471447797 Eh    ::
         :: total charge              -0.000000000000 e     ::
         ::.................................................::
         :: atomisation energy         0.000000000000 Eh    ::
         :::::::::::::::::::::::::::::::::::::::::::::::::::::

           -------------------------------------------------
          |                Property Printout                |
           -------------------------------------------------
           -------------------------------------------------
          |                Geometry Summary                 |
           -------------------------------------------------

      molecular mass/u    :      369.3537071
   center of mass at/Å    :       -5.3727793     -11.5765462       2.2531135
  moments of inertia/u·Å² :        0.8449375E+03   0.1101537E+05   0.1132481E+05
rotational constants/cm⁻¹ :        0.1995134E-01   0.1530374E-02   0.1488558E-02

 * 38 selected distances

     #   Z          #   Z                                           value/Å
     2   6  C       4   1  H                                      1.0758484
     2   6  C       5   1  H                                      1.0747823
     2   6  C       6   1  H                                      1.0759985
     1   6  C       7   7  N                                      1.3526797
     7   7  N       8   6  C                                      1.4614843
     9   6  C      11   8  O                                      1.2131933
     7   7  N      12   1  H                                      1.0235045
     8   6  C      13   1  H                                      1.1071710
     9   6  C      15   7  N                                      1.3900339
    15   7  N      16   6  C                                      1.4552640
    16   6  C      17   6  C                                      1.4793318 (max)
    17   6  C      18   8  O                                      1.2125681
    15   7  N      19   1  H                                      1.0223426
    16   6  C      20   1  H                                      1.0957380
    16   6  C      21   1  H                                      1.0968602
    17   6  C      22   7  N                                      1.3728097
    22   7  N      23   6  C                                      1.4258268
    24   6  C      25   8  O                                      1.2139123
    22   7  N      26   1  H                                      1.0224951
    23   6  C      27   1  H                                      1.0919039
    23   6  C      28   1  H                                      1.0963637
    24   6  C      29   7  N                                      1.3841810
    29   7  N      30   6  C                                      1.4607248
    31   6  C      32   8  O                                      1.2121561
    29   7  N      33   1  H                                      1.0169595 (min)
    30   6  C      34   1  H                                      1.0946495
    30   6  C      35   1  H                                      1.0914890
    31   6  C      36   7  N                                      1.3763245
    36   7  N      37   6  C                                      1.4459722
    38   6  C      39   8  O                                      1.2046979
    36   7  N      40   1  H                                      1.0210580
    37   6  C      41   1  H                                      1.0937027
    37   6  C      42   1  H                                      1.0943184
    38   6  C      43   7  N                                      1.4013208
    43   7  N      44   6  C                                      1.3874192
    43   7  N      45   1  H                                      1.0333789
    44   6  C      46   1  H                                      1.0861305
    44   6  C      47   1  H                                      1.0996374

 * 5 distinct bonds (by element types)

   Z      Z             #   av. dist./Å        max./Å        min./Å
   1 H    6 C          14     1.0910424     1.1071710     1.0747823
   6 C    6 C           1     1.4793318     1.4793318     1.4793318
   1 H    7 N           6     1.0232898     1.0333789     1.0169595
   6 C    7 N          12     1.4095034     1.4614843     1.3526797
   6 C    8 O           5     1.2113055     1.2139123     1.2046979


optimized geometry written to: xtbopt.pdb


           -------------------------------------------------
          | TOTAL ENERGY               -8.167252674190 Eh   |
          | GRADIENT NORM               0.000415017168 Eh/α |
           -------------------------------------------------
########################################################################
[WARNING] Runtime exception occurred
-1- gfnff_setup: Could not read topology file.
########################################################################

------------------------------------------------------------------------
 unit  open   action     filename
   10 false : read       xtb_settings.inp
   10 false : read       substructure_25.pdb
   10 false : read       xtb_settings.inp
   10 false : written    gfnff_topo
   10 false : written    gfnff_adjacency
   10 false : written    gfnff_charges
   10 false : deleted    .xtboptok
   10 false : replaced   xtbopt.log
   11 false : created    .xtboptok
   11 false : replaced   gfnff_charges
   10 false : replaced   xtbopt.pdb

------------------------------------------------------------------------
 * finished run on 2025/05/27 at 09:37:42.686     
------------------------------------------------------------------------
 total:
 * wall-time:     0 d,  0 h,  0 min,  0.018 sec
 *  cpu-time:     0 d,  0 h,  0 min,  0.018 sec
 * ratio c/w:     0.999 speedup
 SCF:
 * wall-time:     0 d,  0 h,  0 min,  0.001 sec
 *  cpu-time:     0 d,  0 h,  0 min,  0.001 sec
 * ratio c/w:     0.999 speedup
 ANC optimizer:
 * wall-time:     0 d,  0 h,  0 min,  0.012 sec
 *  cpu-time:     0 d,  0 h,  0 min,  0.012 sec
 * ratio c/w:     1.000 speedup

