47
 energy: -8.151768838757 gnorm: 0.195744369332 xtb: 6.6.1 (8d0f1dd)
 C         -10.13300000000000      -13.23100000000000        7.65600000000000
 C          -8.62100000000000      -14.10000000000000        9.44300000000000
 O          -9.99300000000000      -14.10800000000000        6.82900000000000
 H          -8.40500000000000      -14.98600000000000        8.84600000000000
 H          -7.86000000000000      -13.35300000000000        9.21100000000000
 H          -8.53000000000000      -14.36900000000000       10.49500000000000
 N         -10.39400000000000      -11.91700000000000        7.33300000000000
 C         -10.28900000000000      -11.46200000000000        5.95800000000000
 C          -8.87600000000000      -11.75000000000000        5.47300000000000
 C         -10.71300000000000       -9.99500000000000        5.75900000000000
 O          -7.93700000000000      -11.21900000000000        6.03100000000000
 H         -10.32500000000000      -11.18800000000000        8.04100000000000
 H         -10.97600000000000      -12.10300000000000        5.38000000000000
 H         -10.60900000000000       -9.77500000000000        4.68200000000000
 N          -8.67600000000000      -12.67600000000000        4.45300000000000
 C          -7.45100000000000      -13.46200000000000        4.45500000000000
 C          -6.72200000000000      -13.48300000000000        3.17400000000000
 O          -7.09600000000000      -14.18000000000000        2.25400000000000
 H          -9.47700000000000      -13.18300000000000        4.07400000000000
 H          -6.80700000000000      -13.05200000000000        5.24600000000000
 H          -7.68800000000000      -14.49000000000000        4.76400000000000
 N          -5.60100000000000      -12.69300000000000        3.11100000000000
 C          -4.79400000000000      -12.69900000000000        1.94100000000000
 C          -4.78400000000000      -11.34800000000000        1.26800000000000
 O          -5.84500000000000      -10.77300000000000        1.13400000000000
 H          -5.43600000000000      -11.93300000000000        3.77400000000000
 H          -3.79800000000000      -13.04400000000000        2.19800000000000
 H          -5.22900000000000      -13.43100000000000        1.24000000000000
 N          -3.62200000000000      -10.75800000000000        0.80200000000000
 C          -2.28900000000000      -11.34700000000000        0.78200000000000
 C          -1.75000000000000      -11.44100000000000       -0.61300000000000
 O          -2.19700000000000      -12.27900000000000       -1.36700000000000
 H          -3.70000000000000       -9.90600000000000        0.25200000000000
 H          -1.62400000000000      -10.75500000000000        1.41700000000000
 H          -2.30700000000000      -12.35800000000000        1.20400000000000
 N          -0.76600000000000      -10.55800000000000       -0.99700000000000
 C          -0.37300000000000      -10.47700000000000       -2.38800000000000
 C          -0.78100000000000       -9.14100000000000       -2.96800000000000
 O          -1.85000000000000       -8.67700000000000       -2.63000000000000
 H          -0.55500000000000       -9.72700000000000       -0.44000000000000
 H           0.70600000000000      -10.62700000000000       -2.45100000000000
 H          -0.87400000000000      -11.27700000000000       -2.92500000000000
 N           0.01400000000000       -8.47100000000000       -3.87900000000000
 C           1.32400000000000       -8.88700000000000       -4.36200000000000
 H          -0.34900000000000       -7.63700000000000       -4.33200000000000
 H           2.09800000000000       -8.48500000000000       -3.73200000000000
 H           1.38400000000000       -9.99100000000000       -4.32300000000000
47
 energy: -8.164702373827 gnorm: 0.074152292832 xtb: 6.6.1 (8d0f1dd)
 C         -10.14516949587432      -13.22141942684057        7.64570208820272
 C          -8.60435973509798      -14.10315289230169        9.44987692074536
 O          -9.99148196744371      -14.11059354468881        6.83179924189102
 H          -8.40683160581905      -14.97897345629112        8.84988539139253
 H          -7.86349314426675      -13.35443029590595        9.21096498497160
 H          -8.53156647493123      -14.36586048207918       10.49462527260144
 N         -10.39848437846429      -11.91876404746125        7.33046355060563
 C         -10.29135298740423      -11.45795723444236        5.95367446219965
 C          -8.87580449797810      -11.75016751329727        5.47327005622987
 C         -10.72770677745809      -10.02255544246696        5.73604395615115
 O          -7.93771722271669      -11.21941590134181        6.03107480458058
 H         -10.32482814654206      -11.18866176405162        8.04204841083048
 H         -10.97610990307354      -12.10519542419280        5.37891290265015
 H         -10.59245038831934       -9.75060947941509        4.70787244499708
 N          -8.67572341375007      -12.67630805822414        4.45465493076019
 C          -7.45111894911896      -13.46292060553461        4.45961765858563
 C          -6.72199803762642      -13.48250320314478        3.17442411502021
 O          -7.09490435666386      -14.18103874780909        2.25548183509423
 H          -9.47615320876147      -13.18372520630778        4.07401225580467
 H          -6.80656271731793      -13.05248799934332        5.24686523787894
 H          -7.68727020201066      -14.49039202153726        4.76524041829624
 N          -5.60148479277298      -12.69225297889362        3.10969969941478
 C          -4.79618822903113      -12.69787359953704        1.93562477193750
 C          -4.78431121570756      -11.34803908317526        1.26741998686784
 O          -5.84472908770454      -10.77280584448504        1.13320568994168
 H          -5.43592484680877      -11.93125678798210        3.77216616441425
 H          -3.79663927511178      -13.04454324800023        2.19530327179510
 H          -5.22960979914754      -13.42892920228561        1.23923297069746
 N          -3.62165858785482      -10.75911911720175        0.80212631825857
 C          -2.28786598010472      -11.35083382023289        0.78285255865809
 C          -1.74907318642445      -11.44288206475621       -0.61204669866012
 O          -2.19587516085924      -12.28074348998267       -1.36597452449458
 H          -3.69896325911037       -9.90662048897807        0.25294387816944
 H          -1.62314802676568      -10.75715989870838        1.41773745684640
 H          -2.30671293963423      -12.35900278649455        1.20462670400003
 N          -0.76500193716123      -10.56004040105020       -0.99605396889468
 C          -0.37295048828050      -10.47589167205907       -2.38621288373993
 C          -0.78380660315661       -9.14719806566184       -2.96987920148096
 O          -1.84785934064893       -8.68048436505278       -2.63143929534843
 H          -0.55394895304425       -9.72989812478476       -0.43933057685023
 H           0.70686230839038      -10.62893538235429       -2.45071369958695
 H          -0.87323482606850      -11.28131268271906       -2.92484671288071
 N           0.03275661460460       -8.48175176488920       -3.88251110626169
 C           1.30165132976931       -8.87684102554626       -4.35656504134446
 H          -0.33843559314239       -7.63676998903116       -4.32120662496034
 H           2.09596329618486       -8.48197913397920       -3.73826959232435
 H           1.37527619022983       -9.97170223548128       -4.33140048366311
47
 energy: -8.167320463659 gnorm: 0.019261547603 xtb: 6.6.1 (8d0f1dd)
 C         -10.15216164836470      -13.21629457910277        7.63916169572224
 C          -8.59518506180697      -14.10452143768461        9.45270125920570
 O          -9.98535091569576      -14.11471980764637        6.83662925874245
 H          -8.40810720276476      -14.97568634234996        8.85108417079308
 H          -7.86573238249506      -13.35367622916071        9.21038729080869
 H          -8.53537443696783      -14.36347463892266       10.49431551698477
 N         -10.39779597267892      -11.92031516375219        7.33282719764154
 C         -10.29273337415565      -11.45351694273104        5.95345571958352
 C          -8.87519032420682      -11.75000586725879        5.47361893999632
 C         -10.74025367061381      -10.04216827670059        5.71797006761957
 O          -7.93749492504898      -11.21944390735538        6.03102253020171
 H         -10.32104612595820      -11.18828615752064        8.04477911596952
 H         -10.97555761032843      -12.10736510930326        5.37969056320915
 H         -10.58249248439803       -9.73517256889995        4.72244439844448
 N          -8.67551404771403      -12.67617760809421        4.45510555646435
 C          -7.45080254295107      -13.46323318930498        4.46165233798941
 C          -6.72221428948333      -13.48207580244480        3.17422466359769
 O          -7.09408030881097      -14.18184260957839        2.25615506304243
 H          -9.47575169396660      -13.18419837888689        4.07402666411939
 H          -6.80611340794866      -13.05243405365876        5.24682356067216
 H          -7.68695997155734      -14.49055561307461        4.76516597410847
 N          -5.60243560938552      -12.69195241695160        3.10923355455569
 C          -4.79867253015016      -12.69742530677194        1.93213780488050
 C          -4.78493984211116      -11.34828651682553        1.26703698529830
 O          -5.84519946923998      -10.77296988216846        1.13270246746607
 H          -5.43678513235066      -11.93036881401652        3.77134496430045
 H          -3.79740563153573      -13.04507481839937        2.19515275924764
 H          -5.23055916412001      -13.42904119687193        1.23944240774227
 N          -3.62178733019522      -10.75970542700776        0.80181095714568
 C          -2.28729067110753      -11.35328543472681        0.78260325152418
 C          -1.74915105358666      -11.44332383345000       -0.61237358523020
 O          -2.19584502086805      -12.28125253954545       -1.36619501811805
 H          -3.69880027102017       -9.90684553536198        0.25312755088551
 H          -1.62315889956874      -10.75797722317616        1.41732648545986
 H          -2.30673670685158      -12.35967324008460        1.20434361109025
 N          -0.76530073723098      -10.56043217595854       -0.99663636653095
 C          -0.37443369356825      -10.47247184890625       -2.38639427928384
 C          -0.79076864430906       -9.14824637408027       -2.97317839848727
 O          -1.85082795242678       -8.68118375124724       -2.63394059414646
 H          -0.55408123670303       -9.73078201899455       -0.43980016278557
 H           0.70579001141318      -10.62964369257536       -2.45207556225248
 H          -0.87320180487397      -11.28226104928361       -2.92521224792622
 N           0.04379300195849       -8.49111042764941       -3.88667714956195
 C           1.29341067807422       -8.87098421599026       -4.35566503586095
 H          -0.33390520355681       -7.63186327430835       -4.31178081312484
 H           2.09959372140530       -8.48631436881906       -3.73864253887869
 H           1.37861158982476       -9.96436033339742       -4.32793259232555
47
 energy: -8.167506952792 gnorm: 0.009828921430 xtb: 6.6.1 (8d0f1dd)
 C         -10.15433706633663      -13.21682199523754        7.63695555347615
 C          -8.59469242485479      -14.10435912493726        9.45275329593921
 O          -9.98341016240127      -14.11640591495831        6.83750357067787
 H          -8.40811496637320      -14.97580486843797        8.85092026456069
 H          -7.86574907873439      -13.35285921120591        9.21039567870194
 H          -8.53561282635638      -14.36324381059875       10.49440464004650
 N         -10.39653444546060      -11.92070753607967        7.33443417116577
 C         -10.29280342903062      -11.45265474909162        5.95401555085404
 C          -8.87509642613828      -11.75013768059349        5.47349955495777
 C         -10.74350141533930      -10.04601585553149        5.71488647123330
 O          -7.93757337758523      -11.21944886057155        6.03099313249557
 H         -10.32009545438051      -11.18760665194626        8.04510007490050
 H         -10.97531026128134      -12.10809662836312        5.37986296340088
 H         -10.57979771544565       -9.73164440531451        4.72496781096635
 N          -8.67549729158623      -12.67612833788077        4.45492692146674
 C          -7.45051428103498      -13.46312240056032        4.46167212555205
 C          -6.72221164862591      -13.48195817577121        3.17414058212439
 O          -7.09396695859584      -14.18186743681299        2.25617670170552
 H          -9.47567502130056      -13.18434862836464        4.07406001826904
 H          -6.80598702157615      -13.05218969380197        5.24685396481026
 H          -7.68685205427623      -14.49050512265562        4.76509747683802
 N          -5.60249971408608      -12.69199921238529        3.10962295303969
 C          -4.79913848481040      -12.69734594613042        1.93175517503175
 C          -4.78504081474136      -11.34831198887688        1.26694896174765
 O          -5.84546349357479      -10.77316566033975        1.13256936045299
 H          -5.43693905176965      -11.93049194917546        3.77183450619015
 H          -3.79802924665294      -13.04479102934862        2.19622949394545
 H          -5.23042010428725      -13.42991585078737        1.23982142697915
 N          -3.62190567324143      -10.75944519926303        0.80172114350142
 C          -2.28735391578115      -11.35340185286115        0.78229593326491
 C          -1.74954404559301      -11.44289147989217       -0.61275161959812
 O          -2.19621738732990      -12.28090708139148       -1.36655806711035
 H          -3.69893172028243       -9.90657846061757        0.25306792054178
 H          -1.62340143464882      -10.75777667134133        1.41700715560807
 H          -2.30697672184306      -12.35968026520638        1.20397409820786
 N          -0.76573172990629      -10.56010340614830       -0.99709231748431
 C          -0.37508030016477      -10.47073603837006       -2.38679731153657
 C          -0.79355687596370       -9.14611202948884       -2.97434217901704
 O          -1.85221317220505       -8.68009592691565       -2.63407848656135
 H          -0.55437541050253       -9.73049154618979       -0.44012547921187
 H           0.70504322046516      -10.62988602880276       -2.45276446857744
 H          -0.87335654079234      -11.28148031162199       -2.92528503111362
 N           0.04389778889607       -8.49437716466553       -3.88860236804103
 C           1.29430842987362       -8.87097026301428       -4.35685388128135
 H          -0.33343760968414       -7.63029427776021       -4.30994455843553
 H           2.10137173868321       -8.48944443515902       -3.73789157334235
 H           1.38232559665712       -9.96537883553171       -4.32438131134250
47
 energy: -8.167556762958 gnorm: 0.003140303392 xtb: 6.6.1 (8d0f1dd)
 C         -10.15586796449071      -13.21769067880701        7.63534517633279
 C          -8.59545285369853      -14.10416269117552        9.45239284951295
 O          -9.98241011791758      -14.11736554073995        6.83780738691364
 H          -8.40802700291205      -14.97617026996355        8.85068893211700
 H          -7.86561003707386      -13.35266474661521        9.21039370727053
 H          -8.53545892015693      -14.36345105047927       10.49433672880259
 N         -10.39526864446723      -11.92060707016871        7.33582097009951
 C         -10.29263216930744      -11.45216097013037        5.95459492268405
 C          -8.87510518370012      -11.75027938311285        5.47334018526415
 C         -10.74432150305561      -10.04682111719632        5.71411550488742
 O          -7.93764719211039      -11.21947690851688        6.03097274531270
 H         -10.31961463420343      -11.18670972602260        8.04515462025697
 H         -10.97518296691362      -12.10809061832831        5.38003813838305
 H         -10.57933414783392       -9.73107627927924        4.72536106363660
 N          -8.67559009163788      -12.67605572698850        4.45472995936496
 C          -7.45041471452740      -13.46300667525997        4.46145411554974
 C          -6.72224853683099      -13.48190278541138        3.17402961865457
 O          -7.09410841625107      -14.18168422156341        2.25599826057749
 H          -9.47572897951760      -13.18431242584635        4.07404340960238
 H          -6.80598428969801      -13.05208159129718        5.24682248053885
 H          -7.68689261614189      -14.49044288898861        4.76496787510151
 N          -5.60232086818313      -12.69222081608387        3.11018090148679
 C          -4.79914232965667      -12.69734451270623        1.93182701137871
 C          -4.78496373022157      -11.34841238529938        1.26686522802668
 O          -5.84560806520129      -10.77358450746266        1.13231078000226
 H          -5.43683611257496      -11.93097555785817        3.77267257278377
 H          -3.79834868224624      -13.04423591054220        2.19759743952743
 H          -5.22975439384989      -13.43090113914373        1.24023331696826
 N          -3.62195067283619      -10.75913421265616        0.80174887023343
 C          -2.28745240030417      -11.35325486184105        0.78212249244122
 C          -1.74981833878990      -11.44252438605605       -0.61297058874182
 O          -2.19645699853081      -12.28061363052837       -1.36677736491556
 H          -3.69904001224755       -9.90635975132955        0.25300122850622
 H          -1.62355291392009      -10.75755961205845        1.41684786742144
 H          -2.30715705478380      -12.35962069668953        1.20372201847897
 N          -0.76596961174444      -10.55990822583398       -0.99731866832726
 C          -0.37530196673468      -10.46966983578472       -2.38690149356001
 C          -0.79494235119835       -9.14385022762051       -2.97487281796900
 O          -1.85253840707829       -8.67893085260156       -2.63334211134747
 H          -0.55449980565574       -9.73027395551421       -0.44027277090174
 H           0.70465903972296      -10.63014118304473       -2.45312262866910
 H          -0.87334516539027      -11.28086509617747       -2.92518406071062
 N           0.04280518373439       -8.49709250804359       -3.89046613598802
 C           1.29498520609055       -8.87111401054862       -4.35778830815394
 H          -0.33290226767499       -7.63002297378637       -4.30946504688338
 H           2.10196119159886       -8.49090733048271       -3.73763871906708
 H           1.38439251012251       -9.96626845441486       -4.32241766288367
47
 energy: -8.167563767299 gnorm: 0.001359010561 xtb: 6.6.1 (8d0f1dd)
 C         -10.15633547856389      -13.21798545927243        7.63482693514707
 C          -8.59592106713062      -14.10405899635693        9.45223478585757
 O          -9.98228418010392      -14.11755922368919        6.83780950356070
 H          -8.40794806166587      -14.97620491361544        8.85067726921199
 H          -7.86555754717481      -13.35278975786112        9.21036712056006
 H          -8.53532407963000      -14.36354481616027       10.49429347356677
 N         -10.39488607431319      -11.92046619243603        7.33619616148045
 C         -10.29254493300472      -11.45212502946791        5.95472160684721
 C          -8.87515049085790      -11.75033480991126        5.47326617766415
 C         -10.74395370074403      -10.04628492472379        5.71456070389516
 O          -7.93769066591014      -11.21946866681412        6.03095378864712
 H         -10.31962001635153      -11.18639083817168        8.04510096722116
 H         -10.97518553707690      -12.10790269102252        5.38006845577133
 H         -10.57971862188831       -9.73154036117523        4.72492978042564
 N          -8.67565099195724      -12.67602675434703        4.45467446387416
 C          -7.45045509012813      -13.46297026364450        4.46135607405940
 C          -6.72227579781311      -13.48190168876190        3.17398181941140
 O          -7.09423280964498      -14.18156991354553        2.25589283062966
 H          -9.47578357008660      -13.18424770468787        4.07401035728129
 H          -6.80602103611327      -13.05208460639015        5.24678674388955
 H          -7.68693774719699      -14.49041435951193        4.76491958492048
 N          -5.60214712270904      -12.69239944921849        3.11047071629809
 C          -4.79902480303586      -12.69736178928865        1.93194339786493
 C          -4.78489682549285      -11.34852753792233        1.26675063753810
 O          -5.84565128677332      -10.77392254407387        1.13198239548613
 H          -5.43669532425347      -11.93132346012383        3.77314806559750
 H          -3.79831539480913      -13.04380976774829        2.19826367509974
 H          -5.22923694821401      -13.43134291099854        1.24042761476307
 N          -3.62194111268483      -10.75903140187000        0.80179781329575
 C          -2.28750223261968      -11.35319071573688        0.78208461500833
 C          -1.74989229165766      -11.44247177461722       -0.61302940902792
 O          -2.19654515804019      -12.28054315179213       -1.36685350981472
 H          -3.69906277768751       -9.90632171119904        0.25297832683462
 H          -1.62355419267327      -10.75757357520617        1.41682813793914
 H          -2.30721408603024      -12.35962263657924        1.20364306087910
 N          -0.76601840844750      -10.55993749431635       -0.99737338610342
 C          -0.37531269722757      -10.46954271390975       -2.38685675906143
 C          -0.79509622979968       -9.14312083212746       -2.97494864688951
 O          -1.85227145066933       -8.67843166086645       -2.63270280539842
 H          -0.55447619209878       -9.73030893353706       -0.44029172155262
 H           0.70458005035904      -10.63019798111575       -2.45321979914004
 H          -0.87335338451883      -11.28075837085652       -2.92516538749986
 N           0.04213812224987       -8.49813220398654       -3.89134282766722
 C           1.29502887328560       -8.87107398542279       -4.35785643241872
 H          -0.33241270750585       -7.63005363914838       -4.30929977043812
 H           2.10187010465254       -8.49080209961839       -3.73766160702445
 H           1.38448097375768       -9.96632568715299       -4.32234499849039
47
 energy: -8.167565885184 gnorm: 0.001003810314 xtb: 6.6.1 (8d0f1dd)
 C         -10.15660472734517      -13.21804168264726        7.63451118803967
 C          -8.59620658389942      -14.10403280893044        9.45214287554949
 O          -9.98229913156488      -14.11759967177378        6.83781267913574
 H          -8.40791866037577      -14.97615604051390        8.85069030377762
 H          -7.86555639529916      -13.35301322681144        9.21031022903378
 H          -8.53528298576203      -14.36362953060077       10.49423263636918
 N         -10.39470605832873      -11.92030702988804        7.33637319446015
 C         -10.29249715758992      -11.45216847324644        5.95472400672878
 C          -8.87519092931067      -11.75034180161504        5.47323991890925
 C         -10.74332875258244      -10.04546659062125        5.71526449459843
 O          -7.93770839367552      -11.21943749865538        6.03094594809088
 H         -10.31965129730972      -11.18622321562689        8.04510134706276
 H         -10.97521757042890      -12.10766128599969        5.38008809531782
 H         -10.58027010938390       -9.73220081106295        4.72435699376334
 N          -8.67570311091683      -12.67598054512018        4.45466892925600
 C          -7.45054922117613      -13.46293930914081        4.46129653684268
 C          -6.72231799394926      -13.48189210019986        3.17393045035603
 O          -7.09437229554500      -14.18145453671325        2.25579864543099
 H          -9.47585091745412      -13.18413507821576        4.07397224865283
 H          -6.80607376473177      -13.05211297625709        5.24673804734424
 H          -7.68700824532698      -14.49038189703783        4.76486672281169
 N          -5.60193813314419      -12.69263356395916        3.11075817394964
 C          -4.79891096453112      -12.69737404416984        1.93203960061437
 C          -4.78487401813291      -11.34871429315316        1.26649135448818
 O          -5.84575004000865      -10.77444318133156        1.13126765909869
 H          -5.43651686136713      -11.93175588045670        3.77366156832431
 H          -3.79815731544683      -13.04317759147801        2.19892878567172
 H          -5.22859293896355      -13.43177989422092        1.24063476281104
 N          -3.62192346087992      -10.75896578577101        0.80185974721947
 C          -2.28754774303323      -11.35315820069133        0.78206674750192
 C          -1.74993443465411      -11.44248743432431       -0.61306428805491
 O          -2.19662555916455      -12.28050002859505       -1.36691430415038
 H          -3.69907524997363       -9.90631831653621        0.25296377022377
 H          -1.62351999536123      -10.75766518036500        1.41683305667020
 H          -2.30725070526763      -12.35963540630633        1.20359950010915
 N          -0.76605556634080      -10.55999328272300       -0.99741728610218
 C          -0.37530603696826      -10.46962276143263       -2.38678288288907
 C          -0.79511639628199       -9.14285055266108       -2.97503949474984
 O          -1.85181503644336       -8.67794277809598       -2.63197340376467
 H          -0.55442165073998       -9.73040393879867       -0.44028370012817
 H           0.70455339851937      -10.63013768801728       -2.45325266173672
 H          -0.87339213021445      -11.28076842758266       -2.92518869096648
 N           0.04143873715529       -8.49913395224091       -3.89240568252747
 C           1.29498322570905       -8.87098931457557       -4.35766153521330
 H          -0.33182875902756       -7.62991960334764       -4.30891826305220
 H           2.10163732332422       -8.49026640226929       -3.73770048552422
 H           1.38425461319349       -9.96618638621861       -4.32256753935418
47
 energy: -8.167566429035 gnorm: 0.000381272214 xtb: 6.6.1 (8d0f1dd)
 C         -10.15650654562156      -13.21793355328566        7.63463494252710
 C          -8.59605474717592      -14.10408146664193        9.45219012427286
 O          -9.98233490839343      -14.11754524060535        6.83781562791168
 H          -8.40796459736024      -14.97615519910842        8.85067788463474
 H          -7.86558134401680      -13.35298731163965        9.21031182259382
 H          -8.53533808926187      -14.36362202417228       10.49423552526220
 N         -10.39482213937905      -11.92033097563232        7.33627194910215
 C         -10.29253115461850      -11.45218279701595        5.95467592872109
 C          -8.87517679900722      -11.75030653261934        5.47327634115533
 C         -10.74339598725085      -10.04555429892899        5.71521210919748
 O          -7.93768927674056      -11.21943251067392        6.03096255309519
 H         -10.31963271161345      -11.18631588633204        8.04514123828738
 H         -10.97522206924697      -12.10769484930188        5.38008253412134
 H         -10.58014649689623       -9.73204756470315        4.72449459794401
 N          -8.67568957350403      -12.67596913763898        4.45469139032407
 C          -7.45055732067785      -13.46293387958453        4.46131902213994
 C          -6.72232320393542      -13.48187500414349        3.17393412356723
 O          -7.09436247942346      -14.18145889942181        2.25581911459190
 H          -9.47584952557980      -13.18412019583570        4.07398032845913
 H          -6.80607640390133      -13.05210754319559        5.24674190783624
 H          -7.68701496920998      -14.49037755344722        4.76486860885207
 N          -5.60193495242485      -12.69264939544377        3.11074258823742
 C          -4.79895026893028      -12.69736741399789        1.93200694644723
 C          -4.78492596702175      -11.34875047355219        1.26638356867665
 O          -5.84581936912288      -10.77457336895239        1.13094077866120
 H          -5.43650649435450      -11.93178305319229        3.77366250544886
 H          -3.79812641818891      -13.04306367170950        2.19890349793221
 H          -5.22857335073032      -13.43179986741961        1.24064427331771
 N          -3.62191780907294      -10.75897458374315        0.80187160135404
 C          -2.28753886820165      -11.35317853846071        0.78207329253674
 C          -1.74992932330161      -11.44250127240891       -0.61305663845964
 O          -2.19663051758792      -12.28050251595869       -1.36691147924707
 H          -3.69906290192889       -9.90632285262127        0.25298001893506
 H          -1.62351175473429      -10.75768365915512        1.41684228232336
 H          -2.30724782338710      -12.35964251437995        1.20361014011042
 N          -0.76605628136640      -10.55998021240104       -0.99741336544529
 C          -0.37529960413081      -10.46965490669562       -2.38678935437953
 C          -0.79513300441586       -9.14309113860087       -2.97507100042110
 O          -1.85174842295852       -8.67787346557053       -2.63193302506908
 H          -0.55441108951351       -9.73041699741529       -0.44026652444901
 H           0.70458358835744      -10.63010477041417       -2.45320487385488
 H          -0.87340568857369      -11.28076872242420       -2.92519402379967
 N           0.04139141587068       -8.49913265705083       -3.89254522606743
 C           1.29500133294178       -8.87100340292230       -4.35760988965382
 H          -0.33187631234556       -7.62977526668519       -4.30879645503428
 H           2.10162794334281       -8.49020573049546       -3.73766418325148
 H           1.38427228459408       -9.96616712440083       -4.32254312944559
47
 energy: -8.167566640591 gnorm: 0.000138550161 xtb: 6.6.1 (8d0f1dd)