      -----------------------------------------------------------      
     |                   =====================                   |     
     |                           x T B                           |     
     |                   =====================                   |     
     |                         S. Grimme                         |     
     |          Mulliken Center for Theoretical Chemistry        |     
     |                    University of Bonn                     |     
      -----------------------------------------------------------      

   * xtb version 6.6.1 (8d0f1dd) compiled by 'conda@1efc2f54142f' on 2023-08-01

   xtb is free software: you can redistribute it and/or modify it under
   the terms of the GNU Lesser General Public License as published by
   the Free Software Foundation, either version 3 of the License, or
   (at your option) any later version.
   
   xtb is distributed in the hope that it will be useful,
   but WITHOUT ANY WARRANTY; without even the implied warranty of
   MERCHANTABILITY or FITNESS FOR A PARTICULAR PURPOSE.  See the
   GNU Lesser General Public License for more details.
   
   Cite this work as:
   * C. Bannwarth, E. Caldeweyher, S. Ehlert, A. Hansen, P. Pracht,
     J. Seibert, S. Spicher, S. Grimme, WIREs Comput. Mol. Sci., 2020, 11,
     e01493. DOI: 10.1002/wcms.1493
   
   for GFN2-xTB:
   * C. Bannwarth, S. Ehlert and S. Grimme., J. Chem. Theory Comput., 2019,
     15, 1652-1671. DOI: 10.1021/acs.jctc.8b01176
   for GFN1-xTB:
   * S. Grimme, C. Bannwarth, P. Shushkov, J. Chem. Theory Comput., 2017,
     13, 1989-2009. DOI: 10.1021/acs.jctc.7b00118
   for GFN0-xTB:
   * P. Pracht, E. Caldeweyher, S. Ehlert, S. Grimme, ChemRxiv, 2019, preprint.
     DOI: 10.26434/chemrxiv.8326202.v1
   for GFN-FF:
   * S. Spicher and S. Grimme, Angew. Chem. Int. Ed., 2020, 59, 15665-15673.
     DOI: 10.1002/anie.202004239
   
   for ALPB and GBSA implicit solvation:
   * S. Ehlert, M. Stahn, S. Spicher, S. Grimme, J. Chem. Theory Comput.,
     2021, 17, 4250-4261. DOI: 10.1021/acs.jctc.1c00471
   
   for DFT-D4:
   * E. Caldeweyher, C. Bannwarth and S. Grimme, J. Chem. Phys., 2017,
     147, 034112. DOI: 10.1063/1.4993215
   * E. Caldeweyher, S. Ehlert, A. Hansen, H. Neugebauer, S. Spicher,
     C. Bannwarth and S. Grimme, J. Chem. Phys., 2019, 150, 154122.
     DOI: 10.1063/1.5090222
   * E. Caldeweyher, J.-M. Mewes, S. Ehlert and S. Grimme, Phys. Chem. Chem. Phys.
     2020, 22, 8499-8512. DOI: 10.1039/D0CP00502A
   
   for sTDA-xTB:
   * S. Grimme and C. Bannwarth, J. Chem. Phys., 2016, 145, 054103.
     DOI: 10.1063/1.4959605
   
   in the mass-spec context:
   * V. Asgeirsson, C. Bauer and S. Grimme, Chem. Sci., 2017, 8, 4879.
     DOI: 10.1039/c7sc00601b
   * J. Koopman and S. Grimme, ACS Omega 2019, 4, 12, 15120-15133.
     DOI: 10.1021/acsomega.9b02011
   
   for metadynamics refer to:
   * S. Grimme, J. Chem. Theory Comput., 2019, 155, 2847-2862
     DOI: 10.1021/acs.jctc.9b00143
   
   for SPH calculations refer to:
   * S. Spicher and S. Grimme, J. Chem. Theory Comput., 2021, 17, 1701-1714
     DOI: 10.1021/acs.jctc.0c01306
   
   with help from (in alphabetical order)
   P. Atkinson, C. Bannwarth, F. Bohle, G. Brandenburg, E. Caldeweyher
   M. Checinski, S. Dohm, S. Ehlert, S. Ehrlich, I. Gerasimov, C. Hölzer
   A. Katbashev, J. Koopman, C. Lavigne, S. Lehtola, F. März, M. Müller,
   F. Musil, H. Neugebauer, J. Pisarek, C. Plett, P. Pracht, F. Pultar,
   J. Seibert, P. Shushkov, S. Spicher, M. Stahn, M. Steiner, T. Strunk,
   J. Stückrath, T. Rose, and J. Unsleber
   
 * started run on 2025/05/27 at 09:37:31.084     

           -------------------------------------------------
          |                Calculation Setup                |
           -------------------------------------------------

          program call               : xtb substructure_3.pdb --gfnff --input xtb_settings.inp --opt vtight --alpb water --verbose
          coordinate file            : substructure_3.pdb
          xtbhome directory          : /home/dargen3
          path for xtb               : /home/dargen3
          xcontrol input file        : xtb_settings.inp
          omp threads                :                     1

$$$$$$$$$$$$$$$$$$$$$$$$$$$$$$$$$$$$$$$$$$$$$$$$$$$$$$$$$$$$$$$$$$$$$$$$
 CONSTRAINTS & SCANS: DEBUG SECTION
$$$$$$$$$$$$$$$$$$$$$$$$$$$$$$$$$$$$$$$$$$$$$$$$$$$$$$$$$$$$$$$$$$$$$$$$
   ID    Z sym.   atoms
    1    7  N     1, 8, 10, 20, 27, 29, 37, 49, 56, 58, 66, 73, 75, 83
    2    6  C     2-4, 6, 7, 9, 21-23, 25, 26, 28, 38-40, 42, 50-52, 54, 55,
                  57, 67-69, 71, 72, 74, 84
    3    8  O     5, 24, 41, 43, 44, 53, 70
    4    1  H     11-19, 30-36, 45-48, 59-65, 76-82, 85, 86
> constrain
-> atoms: 1, 2, 3, 4, 5, 6, 7, 8, 9, 10, 11, 12, 13, 14, 15, 16, 17, 18, 19, 20, 21, 22, 23, 24, 25, 26, 27, 28, 29, 30, 31, 32, 33, 34, 35, 36, 38, 49, 50, 51, 52, 53, 54, 55, 56, 57, 58, 59, 60, 61, 62, 63, 64, 65, 66, 67, 68, 69, 70, 71, 72, 73, 74, 75, 76, 77, 78, 79, 80, 81, 82, 83, 84, 85, 86
--> 1: 1
--> 2: 2
--> 3: 3
--> 4: 4
--> 5: 5
--> 6: 6
--> 7: 7
--> 8: 8
--> 9: 9
--> 10: 10
--> 11: 11
--> 12: 12
--> 13: 13
--> 14: 14
--> 15: 15
--> 16: 16
--> 17: 17
--> 18: 18
--> 19: 19
--> 20: 20
--> 21: 21
--> 22: 22
--> 23: 23
--> 24: 24
--> 25: 25
--> 26: 26
--> 27: 27
--> 28: 28
--> 29: 29
--> 30: 30
--> 31: 31
--> 32: 32
--> 33: 33
--> 34: 34
--> 35: 35
--> 36: 36
--> 37: 38
--> 38: 49
--> 39: 50
--> 40: 51
--> 41: 52
--> 42: 53
--> 43: 54
--> 44: 55
--> 45: 56
--> 46: 57
--> 47: 58
--> 48: 59
--> 49: 60
--> 50: 61
--> 51: 62
--> 52: 63
--> 53: 64
--> 54: 65
--> 55: 66
--> 56: 67
--> 57: 68
--> 58: 69
--> 59: 70
--> 60: 71
--> 61: 72
--> 62: 73
--> 63: 74
--> 64: 75
--> 65: 76
--> 66: 77
--> 67: 78
--> 68: 79
--> 69: 80
--> 70: 81
--> 71: 82
--> 72: 83
--> 73: 84
--> 74: 85
--> 75: 86
-> force constant=1.0
$$$$$$$$$$$$$$$$$$$$$$$$$$$$$$$$$$$$$$$$$$$$$$$$$$$$$$$$$$$$$$$$$$$$$$$$
           -------------------------------------------------
          |                   Constraints                   |
           -------------------------------------------------

 * 75 constrained atom positions
   positions refering to input geometry

     #   Z                                   position/Å      displ./Å
     1   7 N    -21.0690020   -19.8080018    22.7440021     0.0000000
     2   6 C    -21.1080020   -18.7100017    21.7280020     0.0000000
     3   6 C    -19.8730018   -18.8240017    20.8830019     0.0000000
     4   6 C    -21.1370020   -17.3290016    22.3990021     0.0000000
     5   8 O    -18.7750017   -18.5600017    21.3260020     0.0000000
     6   6 C    -22.2800021   -17.1400016    23.3300022     0.0000000
     7   6 C    -23.6290022   -17.2610016    23.0490021     0.0000000
     8   7 N    -22.1970021   -16.7900016    24.6500023     0.0000000
     9   6 C    -23.4940022   -16.7210016    25.1000023     0.0000000
    10   7 N    -24.3580023   -17.0030016    24.1510022     0.0000000
    11   1 H    -21.9350020   -19.8480018    23.2980022     0.0000000
    12   1 H    -21.9910020   -18.8280017    21.1080020     0.0000000
    13   1 H    -20.2010019   -17.1880016    22.9480021     0.0000000
    14   1 H    -21.1520020   -16.5460015    21.6340020     0.0000000
    15   1 H    -21.3450020   -16.6060015    25.1800023     0.0000000
    16   1 H    -24.0540022   -17.5250016    22.0910020     0.0000000
    17   1 H    -23.7800022   -16.4680015    26.1120024     0.0000000
    18   1 H    -20.9220019   -20.7150019    22.2780021     0.0000000
    19   1 H    -20.2780019   -19.6640018    23.3820022     0.0000000
    20   7 N    -20.0850019   -19.1630018    19.5570018     0.0000000
    21   6 C    -18.9830018   -19.6060018    18.7380017     0.0000000
    22   6 C    -18.9280018   -18.7580017    17.4920016     0.0000000
    23   6 C    -19.0970018   -21.1000020    18.4080017     0.0000000
    24   8 O    -19.0390018   -19.2230018    16.3750015     0.0000000
    25   6 C    -19.2240018   -21.9370020    19.6300018     0.0000000
    26   6 C    -20.3940019   -22.3640021    20.2310019     0.0000000
    27   7 N    -18.2080017   -22.3540021    20.4430019     0.0000000
    28   6 C    -18.8080017   -23.0140021    21.4880020     0.0000000
    29   7 N    -20.1160019   -23.0190021    21.3720020     0.0000000
    30   1 H    -21.0160019   -19.3600018    19.1900018     0.0000000
    31   1 H    -18.0700017   -19.4400018    19.3190018     0.0000000
    32   1 H    -19.9660019   -21.2560020    17.7620016     0.0000000
    33   1 H    -18.2290017   -21.4200020    17.8230017     0.0000000
    34   1 H    -17.2100016   -22.1890021    20.3070019     0.0000000
    35   1 H    -21.3970020   -22.2020021    19.8590018     0.0000000
    36   1 H    -18.2800017   -23.4730022    22.3150021     0.0000000
    38   6 C    -18.6570017   -16.4630015    16.6330015     0.0000000
    49   7 N    -17.4480016   -17.2520016    14.7030014     0.0000000
    50   6 C    -16.2960015   -17.4860016    13.8690013     0.0000000
    51   6 C    -15.9300015   -16.1910015    13.1840012     0.0000000
    52   6 C    -16.5030015   -18.6120017    12.8500012     0.0000000
    53   8 O    -16.4450015   -15.8920015    12.1280011     0.0000000
    54   6 C    -15.3640014   -18.7970017    11.9000011     0.0000000
    55   6 C    -14.0650013   -18.3240017    11.9980011     0.0000000
    56   7 N    -15.4270014   -19.4840018    10.7190010     0.0000000
    57   6 C    -14.1770013   -19.3890018    10.1620009     0.0000000
    58   7 N    -13.3540012   -18.7010017    10.9210010     0.0000000
    59   1 H    -18.3420017   -17.5410016    14.3070013     0.0000000
    60   1 H    -15.4680014   -17.7660016    14.5400013     0.0000000
    61   1 H    -16.7100016   -19.5520018    13.3700012     0.0000000
    62   1 H    -17.3980016   -18.3770017    12.2670011     0.0000000
    63   1 H    -16.2430015   -19.9600019    10.3330010     0.0000000
    64   1 H    -13.6550013   -17.7170016    12.7940012     0.0000000
    65   1 H    -13.8880013   -19.8290018     9.2150009     0.0000000
    66   7 N    -14.9600014   -15.4320014    13.8530013     0.0000000
    67   6 C    -14.3680013   -14.2880013    13.1920012     0.0000000
    68   6 C    -13.4780013   -14.7710014    12.0750011     0.0000000
    69   6 C    -13.6120013   -13.3750012    14.1630013     0.0000000
    70   8 O    -12.3060011   -15.0070014    12.2790011     0.0000000
    71   6 C    -14.5270013   -12.5450012    14.9910014     0.0000000
    72   6 C    -15.4930014   -12.9710012    15.8830015     0.0000000
    73   7 N    -14.6100014   -11.1810010    14.9590014     0.0000000
    74   6 C    -15.6150014   -10.8460010    15.8320015     0.0000000
    75   7 N    -16.1490015   -11.9090011    16.3850015     0.0000000
    76   1 H    -14.4340013   -15.8120015    14.6420014     0.0000000
    77   1 H    -15.1940014   -13.7160013    12.7510012     0.0000000
    78   1 H    -12.9600012   -13.9770013    14.8010014     0.0000000
    79   1 H    -12.9500012   -12.7170012    13.5930013     0.0000000
    80   1 H    -14.0540013   -10.5490010    14.3850013     0.0000000
    81   1 H    -15.7290015   -13.9980013    16.1350015     0.0000000
    82   1 H    -15.9420015    -9.8360009    16.0410015     0.0000000
    83   7 N    -14.1230013   -14.9230014    10.8500010     0.0000000
    84   6 C    -13.3720012   -15.2880014     9.6620009     0.0000000
    85   1 H    -15.1430014   -14.8500014    10.7640010     0.0000000
    86   1 H    -12.8120012   -16.1980015     9.9180009     0.0000000

     applying 2775 atom pairwise harmonic potentials
       applied force constant per pair:     0.0135135
     effective force constant per atom:     1.0000000
         constraining energy/grad norm:     0.0000000     0.0000000

     total constraint energy/grad norm:     0.0000000     0.0000000

          charge from pdb residues: 0

          entering GFN-FF setup routine... 86

          ==================== Thresholds ====================
          CN  :   150.00000
          rep :   500.00000
          disp:  2500.00000
          HB1 :   250.00000
          HB2 :   450.00000

          Pauling EN used:
          Z : 1  EN :  2.20
          Z : 6  EN :  2.55
          Z : 7  EN :  3.04
          Z : 8  EN :  3.44
          electric field strengths (au): 0.000

           ------------------------------------------------- 
          |           Force Field Initialization            |
           ------------------------------------------------- 

          distances ...
          ----------------------------------------
          generating topology and atomic info file ...
          pair mat ...
          computing topology distances matrix with Floyd-Warshall algo ...
          making topology EEQ charges ...
          #fragments for EEQ constrain from pdb file: 6
          ----------------------------------------
          generating topology and atomic info file ...
          pair mat ...
          computing topology distances matrix with Floyd-Warshall algo ...
          making topology EEQ charges ...
          #fragments for EEQ constrain from pdb file: 6
          rings ...
          # BATM   902
          # H in HB   35
          doing iterative Hueckel for 10 subsystem(s) ...
          iterative Hueckel run to get P ...
Hueckel system :  1 charge :   0 ndim/Nel :    3    4   eps(HOMO/LUMO)   -0.904387   -0.904387
Hueckel system :  2 charge :   0 ndim/Nel :    5    6   eps(HOMO/LUMO)   -1.246338    3.256391
Hueckel system :  3 charge :   0 ndim/Nel :    3    4   eps(HOMO/LUMO)   -0.941559   -0.941559
Hueckel system :  4 charge :   0 ndim/Nel :    5    6   eps(HOMO/LUMO)   -1.252285    3.252140
Hueckel system :  5 charge :   0 ndim/Nel :    3    4   eps(HOMO/LUMO)   -0.889563   -0.889563
Hueckel system :  6 charge :   0 ndim/Nel :    3    3   eps(HOMO/LUMO)   -0.828915   -0.828915
Hueckel system :  7 charge :   0 ndim/Nel :    3    4   eps(HOMO/LUMO)   -0.899675   -0.899675
Hueckel system :  8 charge :   0 ndim/Nel :    5    6   eps(HOMO/LUMO)   -1.251841    3.252477
Hueckel system :  9 charge :   0 ndim/Nel :    4    4   eps(HOMO/LUMO)   -2.209266    2.538173
Hueckel system : 10 charge :   0 ndim/Nel :    5    6   eps(HOMO/LUMO)   -1.251374    3.252551

  atom   neighbors  erfCN metchar sp-hybrid imet pi  qest     coordinates
    1   N      4    3.49   0.00         3    0    0  -0.258  -39.814640  -37.431695   42.979931
    2   C      4    3.49   0.00         3    0    0   0.022  -39.888339  -35.356776   41.059969
    3   C      3    2.80   0.00         2    0    1   0.145  -37.554527  -35.572205   39.463151
    4   C      4    3.49   0.00         3    0    0  -0.036  -39.943141  -32.747064   42.327975
    5   O      1    0.98   0.00         2    0    1  -0.391  -35.479608  -35.073317   40.300299
    6   C      3    2.96   0.00         2    0    1   0.038  -42.103098  -32.389906   44.087310
    7   C      3    3.05   0.00         2    0    1   0.033  -44.652339  -32.618563   43.556297
    8   N      3    2.88   0.00         3    0    1  -0.197  -41.946251  -31.728502   46.581749
    9   C      3    3.10   0.00         2    0    1   0.074  -44.397226  -31.598111   47.432126
   10   N      2    2.00   0.00         2    0    1  -0.208  -46.029949  -32.131013   45.638776
   11   H      1    0.98   0.00         0    0    0   0.117  -41.451143  -37.507284   44.026839
   12   H      1    0.97   0.00         0    0    0   0.056  -41.556967  -35.579763   39.888339
   13   H      1    0.97   0.00         0    0    0   0.061  -38.174357  -32.480613   43.365435
   14   H      1    0.97   0.00         0    0    0   0.061  -39.971487  -31.267408   40.882335
   15   H      1    0.98   0.00         0    0    0   0.124  -40.336204  -31.380792   47.583304
   16   H      1    0.97   0.00         0    0    0   0.062  -45.455472  -33.117450   41.745940
   17   H      1    0.97   0.00         0    0    0   0.062  -44.937687  -31.120010   49.344529
   18   H      1    0.98   0.00         0    0    0   0.117  -39.536850  -39.145677   42.099319
   19   H      1    0.98   0.00         0    0    0   0.117  -38.319866  -37.159575   44.185576
   20   N      3    2.80   0.00        -3    0    1  -0.169  -37.955149  -36.212822   36.957374
   21   C      4    3.50   0.00         3    0    0   0.030  -35.872671  -37.049970   35.409688
   22   C      3    2.80   0.00         2    0    1   0.133  -35.768736  -35.447483   33.055089
   23   C      4    3.49   0.00         3    0    0  -0.035  -36.088100  -39.873221   34.786079
   24   O      1    0.98   0.00         2    0    1  -0.376  -35.978496  -36.326205   30.944265
   25   C      3    2.96   0.00         2    0    1   0.044  -36.328095  -41.454922   37.095324
   26   C      3    3.05   0.00         2    0    1   0.033  -38.539075  -42.261835   38.231049
   27   N      3    2.88   0.00         3    0    1  -0.192  -34.408133  -42.242938   38.631671
   28   C      3    3.10   0.00         2    0    1   0.078  -35.541969  -43.490157   40.606435
   29   N      2    2.01   0.00         2    0    1  -0.188  -38.013731  -43.499606   40.387227
   30   H      1    0.98   0.00         0    0    0   0.138  -39.714484  -36.585098   36.263844
   31   H      1    0.97   0.00         0    0    0   0.070  -34.147351  -36.736276   36.507619
   32   H      1    0.97   0.00         0    0    0   0.072  -37.730272  -40.168019   33.565315
   33   H      1    0.97   0.00         0    0    0   0.072  -34.447818  -40.477934   33.680589
   34   H      1    0.98   0.00         0    0    0   0.138  -32.522187  -41.931133   38.374668
   35   H      1    0.97   0.00         0    0    0   0.077  -40.434470  -41.955699   37.528071
   36   H      1    0.97   0.00         0    0    0   0.074  -34.544194  -44.357541   42.169238
   37   N      3    2.80   0.00        -3    0    1  -0.097  -35.207487  -32.932257   33.482167
   38   C      4    3.50   0.00         3    0    0   0.035  -35.256620  -31.110561   31.431815
   39   C      3    2.80   0.00         2    0    1   0.218  -32.801866  -31.269298   30.006961
   40   C      4    3.49   0.00         3    0    0  -0.027  -35.774405  -28.427150   32.465495
   41   O      1    0.98   0.00         2    0    1  -0.321  -30.917809  -30.212941   30.743954
   42   C      3    2.79   0.00         2    0    1   0.278  -34.190815  -27.795982   34.769071
   43   O      1    0.98   0.00         2    0    1  -0.314  -34.733166  -28.931707   36.715489
   44   O      1    0.98   0.00         2    0    1  -0.314  -32.507069  -26.223729   34.519627
   45   H      1    0.98   0.00         0    0    0   0.170  -34.723718  -32.287861   35.252841
   46   H      1    0.97   0.00         0    0    0   0.120  -36.794857  -31.679369   30.178926
   47   H      1    0.97   0.00         0    0    0   0.126  -35.411578  -27.017414   30.993398
   48   H      1    0.97   0.00         0    0    0   0.126  -37.766177  -28.258964   33.005956
   49   N      3    2.80   0.00        -3    0    1  -0.225  -32.971941  -32.601555   27.784643
   50   C      4    3.49   0.00         3    0    0   0.034  -30.794977  -33.043751   26.208612
   51   C      3    2.80   0.00         2    0    1   0.169  -30.103337  -30.596556   24.914149
   52   C      4    3.49   0.00         3    0    0  -0.033  -31.186150  -35.171583   24.282981
   53   O      1    0.98   0.00         2    0    1  -0.371  -31.076546  -30.031528   22.918598
   54   C      3    2.96   0.00         2    0    1   0.044  -29.033752  -35.521182   22.487741
   55   C      3    3.05   0.00         2    0    1   0.031  -26.578998  -34.627342   22.672934
   56   N      3    2.88   0.00         3    0    1  -0.195  -29.152805  -36.819424   20.255974
   57   C      3    3.10   0.00         2    0    1   0.078  -26.790647  -36.639900   19.203397
   58   N      2    2.00   0.00         2    0    1  -0.187  -25.235403  -35.339768   20.637699
   59   H      1    0.98   0.00         0    0    0   0.144  -34.661357  -33.147686   27.036312
   60   H      1    0.97   0.01         0    0    0   0.073  -29.230284  -33.572874   27.476618
   61   H      1    0.97   0.00         0    0    0   0.072  -31.577324  -36.947925   25.265638
   62   H      1    0.97   0.00         0    0    0   0.072  -32.877455  -34.727497   23.181270
   63   H      1    0.98   0.00         0    0    0   0.139  -30.694821  -37.718933   19.526540
   64   H      1    0.97   0.00         0    0    0   0.078  -25.804210  -33.480278   24.177156
   65   H      1    0.97   0.00         0    0    0   0.075  -26.244516  -37.471379   17.413826
   66   N      3    2.79   0.00        -3    0    1  -0.186  -28.270303  -29.162254   26.178376
   67   C      4    3.50   0.00         3    0    0   0.030  -27.151585  -27.000407   24.929267
   68   C      3    2.80   0.00         2    0    1   0.154  -25.469729  -27.913145   22.818443
   69   C      4    3.49   0.00         3    0    0  -0.031  -25.722952  -25.275087   26.764191
   70   O      1    0.98   0.00         2    0    1  -0.371  -23.254970  -28.359120   23.203947
   71   C      3    2.97   0.00         2    0    1   0.044  -27.452051  -23.706614   28.328884
   72   C      3    3.04   0.00         2    0    1   0.034  -29.277527  -24.511638   30.014520
   73   N      3    2.88   0.00         3    0    1  -0.191  -27.608899  -21.129028   28.268413
   74   C      3    3.10   0.00         2    0    1   0.077  -29.508073  -20.495970   29.918144
   75   N      2    2.01   0.00         2    0    1  -0.193  -30.517187  -22.504748   30.963163
   76   H      1    0.98   0.00         0    0    0   0.136  -27.276307  -29.880349   27.669370
   77   H      1    0.97   0.00         0    0    0   0.075  -28.712499  -25.919484   24.095898
   78   H      1    0.97   0.00         0    0    0   0.072  -24.490851  -26.412702   27.969836
   79   H      1    0.97   0.00         0    0    0   0.072  -24.471953  -24.031647   25.687047
   80   H      1    0.98   0.00         0    0    0   0.135  -26.558211  -19.934721   27.183710
   81   H      1    0.97   0.00         0    0    0   0.074  -29.723502  -26.452386   30.490731
   82   H      1    0.97   0.00         0    0    0   0.070  -30.126014  -18.587346   30.313097
   83   N      3    2.79   0.00         3    0    1  -0.045  -26.688602  -28.200383   20.503528
   84   C      2    1.92   0.00        -2    0    1  -0.253  -25.269418  -28.890133   18.258534
   85   H      1    0.98   0.00         0    0    0   0.116  -28.616123  -28.062433   20.341012
   86   H      1    0.97   0.01         0    0    0   0.182  -24.211171  -30.609784   18.742304

molecular fragment  # atoms  topo charge
       1            19            -0.000
       2            17             0.000
       3            12             0.000
       4            17             0.000
       5            17            -0.000
       6             4             0.000


          #atoms :   86
          #bonds :   89

 bond atoms        type  in ring    R      R0    piBO    fqq  kbond(tot)  alp
 C  N     2    1      1    0     1.496   1.362 -99.000   1.047  -0.153   0.496
 C  C     3    2      1    0     1.501   1.332 -99.000   1.002  -0.160   0.475
 C  C     4    2      1    0     1.536   1.371 -99.000   1.033  -0.153   0.468
 O  C     5    3      2    0     1.213   1.031   0.859   1.047  -0.262   0.584
 C  C     6    4      1    0     1.486   1.341 -99.000   1.038  -0.166   0.475
 C  C     7    6      2    5     1.383   1.247   0.755   1.010  -0.273   0.491
 N  C     8    6      2    5     1.368   1.267   0.556   1.047  -0.250   0.524
 C  N     9    8      2    5     1.375   1.275   0.558   1.047  -0.250   0.524
 N  C    10    7      2    5     1.346   1.228   0.550   1.047  -0.239   0.519
 N  C    10    9      2    5     1.314   1.195   0.750   1.047  -0.278   0.519
 H  N    11    1      1    0     1.029   0.924 -99.000   1.047  -0.176   0.551
 H  C    12    2      1    0     1.085   0.976 -99.000   1.010  -0.163   0.482
 H  C    13    4      1    0     1.094   0.976 -99.000   1.043  -0.168   0.482
 H  C    14    4      1    0     1.095   0.976 -99.000   1.043  -0.168   0.482
 H  N    15    8      1    0     1.020   0.894 -99.000   1.047  -0.176   0.551
 H  C    16    7      1    0     1.081   0.964 -99.000   1.005  -0.175   0.490
 H  C    17    9      1    0     1.082   0.967 -99.000   1.000  -0.174   0.490
 H  N    18    1      1    0     1.030   0.924 -99.000   1.047  -0.176   0.551
 H  N    19    1      1    0     1.026   0.924 -99.000   1.047  -0.176   0.551
 N  C    20    3      2    0     1.385   1.264   0.500   1.047  -0.234   0.524
 C  N    21   20      1    0     1.443   1.326 -99.000   1.047  -0.153   0.496
 C  C    22   21      1    0     1.508   1.333 -99.000   1.001  -0.160   0.475
 C  C    23   21      1    0     1.534   1.371 -99.000   1.035  -0.154   0.468
 O  C    24   22      2    0     1.215   1.030   0.861   1.047  -0.262   0.584
 C  C    25   23      1    0     1.487   1.341 -99.000   1.039  -0.166   0.475
 C  C    26   25      2    5     1.383   1.247   0.755   1.008  -0.273   0.491
 N  C    27   25      2    5     1.366   1.267   0.555   1.047  -0.250   0.524
 C  N    28   27      2    5     1.374   1.275   0.559   1.047  -0.250   0.524
 N  C    29   26      2    5     1.345   1.228   0.550   1.047  -0.239   0.519
 N  C    29   28      2    5     1.313   1.195   0.749   1.047  -0.278   0.519
 H  N    30   20      1    0     1.020   0.890 -99.000   1.047  -0.176   0.551
 H  C    31   21      1    0     1.095   0.977 -99.000   1.005  -0.162   0.482
 H  C    32   23      1    0     1.094   0.976 -99.000   1.044  -0.168   0.482
 H  C    33   23      1    0     1.095   0.976 -99.000   1.044  -0.168   0.482
 H  N    34   27      1    0     1.021   0.894 -99.000   1.047  -0.176   0.551
 H  C    35   26      1    0     1.082   0.964 -99.000   1.003  -0.174   0.490
 H  C    36   28      1    0     1.083   0.967 -99.000   1.000  -0.174   0.490
 N  C    37   22      2    0     1.382   1.265   0.494   1.047  -0.233   0.524
 C  N    38   37      1    0     1.452   1.326 -99.000   1.046  -0.153   0.496
 C  C    39   38      1    0     1.504   1.333 -99.000   1.000  -0.160   0.475
 C  C    40   38      1    0     1.546   1.371 -99.000   1.034  -0.154   0.468
 O  C    41   39      2    0     1.208   1.032   0.851   1.047  -0.261   0.584
 C  C    42   40      1    0     1.516   1.331 -99.000   1.047  -0.168   0.475
 O  C    43   42      2    0     1.227   1.058   0.703   1.047  -0.236   0.584
 O  C    44   42      2    0     1.226   1.058   0.703   1.047  -0.236   0.584
 H  N    45   37      1    0     1.029   0.890 -99.000   1.047  -0.176   0.551
 H  C    46   38      1    0     1.092   0.977 -99.000   1.001  -0.161   0.482
 H  C    47   40      1    0     1.096   0.976 -99.000   1.046  -0.168   0.482
 H  C    48   40      1    0     1.096   0.976 -99.000   1.046  -0.168   0.482
 N  C    49   39      2    0     1.374   1.262   0.512   1.047  -0.236   0.524
 C  N    50   49      1    0     1.441   1.326 -99.000   1.047  -0.153   0.496
 C  C    51   50      1    0     1.510   1.332 -99.000   1.000  -0.160   0.475
 C  C    52   50      1    0     1.533   1.371 -99.000   1.036  -0.154   0.468
 O  C    53   51      2    0     1.212   1.031   0.856   1.047  -0.262   0.584
 C  C    54   52      1    0     1.495   1.341 -99.000   1.039  -0.166   0.475
 C  C    55   54      2    5     1.386   1.247   0.755   1.009  -0.273   0.491
 N  C    56   54      2    5     1.368   1.267   0.556   1.047  -0.250   0.524
 C  N    57   56      2    5     1.372   1.275   0.560   1.047  -0.250   0.524
 N  C    58   55      2    5     1.344   1.228   0.550   1.047  -0.239   0.519
 N  C    58   57      2    5     1.314   1.195   0.749   1.047  -0.278   0.519
 H  N    59   49      1    0     1.020   0.890 -99.000   1.047  -0.176   0.551
 H  C    60   50      1    0     1.102   0.976 -99.000   1.003  -0.162   0.482
 H  C    61   52      1    0     1.094   0.976 -99.000   1.043  -0.168   0.482
 H  C    62   52      1    0     1.094   0.976 -99.000   1.043  -0.168   0.482
 H  N    63   56      1    0     1.020   0.894 -99.000   1.047  -0.176   0.551
 H  C    64   55      1    0     1.082   0.964 -99.000   1.003  -0.174   0.490
 H  C    65   57      1    0     1.083   0.967 -99.000   1.000  -0.174   0.490
 N  C    66   51      2    0     1.402   1.263   0.503   1.047  -0.234   0.524
 C  N    67   66      1    0     1.448   1.326 -99.000   1.047  -0.153   0.496
 C  C    68   67      1    0     1.508   1.332 -99.000   1.000  -0.160   0.475
 C  C    69   67      1    0     1.532   1.371 -99.000   1.034  -0.153   0.468
 O  C    70   68      2    0     1.213   1.014   0.951   1.047  -0.278   0.584
 C  C    71   69      1    0     1.487   1.341 -99.000   1.038  -0.166   0.475
 C  C    72   71      2    5     1.382   1.247   0.755   1.008  -0.272   0.491
 N  C    73   71      2    5     1.367   1.268   0.556   1.047  -0.250   0.524
 C  N    74   73      2    5     1.373   1.275   0.559   1.047  -0.250   0.524
 N  C    75   72      2    5     1.345   1.228   0.550   1.047  -0.239   0.519
 N  C    75   74      2    5     1.312   1.195   0.750   1.047  -0.278   0.519
 H  N    76   66      1    0     1.022   0.890 -99.000   1.047  -0.176   0.551
 H  C    77   67      1    0     1.097   0.977 -99.000   1.004  -0.162   0.482
 H  C    78   69      1    0     1.093   0.976 -99.000   1.043  -0.168   0.482
 H  C    79   69      1    0     1.094   0.976 -99.000   1.043  -0.168   0.482
 H  N    80   73      1    0     1.019   0.894 -99.000   1.047  -0.176   0.551
 H  C    81   72      1    0     1.083   0.964 -99.000   1.003  -0.174   0.490
 H  C    82   74      1    0     1.082   0.967 -99.000   1.000  -0.174   0.490
 N  C    83   68      2    0     1.393   1.302   0.284   1.047  -0.191   0.524
 C  N    84   83      2    0     1.452   1.153   0.840   1.000  -0.287   0.524
 H  N    85   83      1    0     1.026   0.890 -99.000   1.047  -0.176   0.551
 H  C    86   84      1    0     1.099   0.903 -99.000   1.047  -0.182   0.490
          #angl  :   152

 angle atoms        phi0    phi      FC  pi rings
    1   11    2   104.000 111.850   0.209 F   0
    1   18    2   104.000 110.034   0.209 F   0
    1   18   11   104.000 109.235   0.221 F   0
    1   19    2   104.000 109.826   0.209 F   0
    1   19   11   104.000 108.629   0.221 F   0
    1   19   18   104.000 107.140   0.221 F   0
    2    3    1   109.500 107.764   0.306 F   0
    2    4    1   109.500 111.326   0.306 F   0
    2    4    3   109.500 109.261   0.305 F   0
    2   12    1   109.500 109.224   0.253 F   0
    2   12    3   109.500 109.852   0.252 F   0
    2   12    4   109.500 109.391   0.251 F   0
    3    5    2   120.000 121.514   0.179 F   0
    3   20    2   120.000 115.576   0.243 F   0
    3   20    5   120.000 122.783   0.177 F   0
    4    6    2   109.500 113.740   0.304 F   0
    4   13    2   109.500 108.599   0.251 F   0
    4   13    6   109.500 109.097   0.251 F   0
    4   14    2   109.500 109.762   0.251 F   0
    4   14    6   109.500 109.647   0.251 F   0
    4   14   13   108.600 105.673   0.208 F   0
    6    7    4   120.000 127.707   0.244 F   0
    6    8    4   120.000 126.175   0.245 F   0
    6    8    7   109.000 106.113   0.265 F   5
    7   10    6   109.000 110.184   0.265 F   5
    7   16    6   120.000 125.798   0.202 F   0
    7   16   10   120.000 124.018   0.203 F   0
    8    9    6   113.000 105.751   0.076 F   5
    8   15    6   113.000 126.732   0.174 F   0
    8   15    9   113.000 127.511   0.173 F   0
    9   10    8   109.000 111.914   0.264 F   5
    9   17    8   120.000 124.578   0.202 F   0
    9   17   10   120.000 123.508   0.202 F   0
   10    9    7   105.000 106.037   0.284 F   5
   20   21    3   115.000 120.116   0.409 F   0
   20   30    3   115.000 122.108   0.335 F   0
   20   30   21   104.000 115.700   0.182 F   0
   21   22   20   109.500 108.917   0.306 F   0
   21   23   20   109.500 111.368   0.306 F   0
   21   23   22   109.500 111.871   0.305 F   0
   21   31   20   109.500 106.808   0.253 F   0
   21   31   22   109.500 108.830   0.252 F   0
   21   31   23   109.500 108.890   0.251 F   0
   22   24   21   120.000 122.752   0.180 F   0
   22   37   21   120.000 114.466   0.245 F   0
   22   37   24   120.000 122.577   0.179 F   0
   23   25   21   109.500 112.198   0.304 F   0
   23   32   21   109.500 108.959   0.251 F   0
   23   32   25   109.500 109.709   0.251 F   0
   23   33   21   109.500 109.921   0.251 F   0
   23   33   25   109.500 110.028   0.251 F   0
   23   33   32   108.600 105.821   0.208 F   0
   25   26   23   120.000 127.111   0.244 F   0
   25   27   23   120.000 126.683   0.245 F   0
   25   27   26   109.000 106.038   0.265 F   5
   26   29   25   109.000 110.136   0.265 F   5
   26   35   25   120.000 126.061   0.202 F   0
   26   35   29   120.000 123.802   0.203 F   0
   27   28   25   113.000 105.928   0.076 F   5
   27   34   25   113.000 126.758   0.174 F   0
   27   34   28   113.000 127.303   0.173 F   0
   28   29   27   109.000 111.693   0.264 F   5
   28   36   27   120.000 124.846   0.202 F   0
   28   36   29   120.000 123.460   0.202 F   0
   29   28   26   105.000 106.202   0.285 F   5
   37   38   22   115.000 120.889   0.412 F   0
   37   45   22   115.000 121.411   0.338 F   0
   37   45   38   104.000 117.697   0.182 F   0
   38   39   37   109.500 108.789   0.307 F   0
   38   40   37   109.500 110.404   0.306 F   0
   38   40   39   109.500 112.434   0.305 F   0
   38   46   37   109.500 106.503   0.253 F   0
   38   46   39   109.500 108.901   0.253 F   0
   38   46   40   109.500 109.621   0.252 F   0
   39   41   38   120.000 121.678   0.178 F   0
   39   49   38   120.000 113.644   0.241 F   0
   39   49   41   120.000 124.605   0.174 F   0
   40   42   38   109.500 112.875   0.303 F   0
   40   47   38   109.500 110.045   0.251 F   0
   40   47   42   109.500 108.951   0.250 F   0
   40   48   38   109.500 109.718   0.251 F   0
   40   48   42   109.500 107.689   0.250 F   0
   40   48   47   108.600 107.390   0.208 F   0
   42   43   40   120.000 115.963   0.175 F   0
   42   44   40   120.000 117.674   0.175 F   0
   42   44   43   122.000 126.362   0.253 F   0
   49   50   39   115.000 121.747   0.403 F   0
   49   59   39   115.000 122.361   0.328 F   0
   49   59   50   104.000 115.471   0.180 F   0
   50   51   49   109.500 108.480   0.306 F   0
   50   52   49   109.500 113.330   0.305 F   0
   50   52   51   109.500 111.173   0.305 F   0
   50   60   49   109.500 106.827   0.252 F   0
   50   60   51   109.500 108.181   0.252 F   0
   50   60   52   109.500 108.642   0.251 F   0
   51   53   50   120.000 120.244   0.179 F   0
   51   66   50   120.000 114.558   0.243 F   0
   51   66   53   120.000 125.183   0.176 F   0
   52   54   50   109.500 114.242   0.304 F   0
   52   61   50   109.500 109.925   0.251 F   0
   52   61   54   109.500 109.874   0.251 F   0
   52   62   50   109.500 107.883   0.251 F   0
   52   62   54   109.500 108.143   0.251 F   0
   52   62   61   108.600 106.449   0.208 F   0
   54   55   52   120.000 128.834   0.244 F   0
   54   56   52   120.000 125.162   0.245 F   0
   54   56   55   109.000 106.001   0.265 F   5
   55   58   54   109.000 110.080   0.266 F   5
   55   64   54   120.000 126.784   0.202 F   0
   55   64   58   120.000 123.118   0.203 F   0
   56   57   54   113.000 105.893   0.076 F   5
   56   63   54   113.000 126.707   0.174 F   0
   56   63   57   113.000 127.397   0.173 F   0
   57   58   56   109.000 111.866   0.264 F   5
   57   65   56   120.000 124.738   0.202 F   0
   57   65   58   120.000 123.395   0.202 F   0
   58   57   55   105.000 106.159   0.285 F   5
   66   67   51   115.000 119.535   0.408 F   0
   66   76   51   115.000 121.571   0.333 F   0
   66   76   67   104.000 115.849   0.181 F   0
   67   68   66   109.500 109.056   0.306 F   0
   67   69   66   109.500 112.534   0.305 F   0
   67   69   68   109.500 111.661   0.305 F   0
   67   77   66   109.500 106.714   0.253 F   0
   67   77   68   109.500 108.278   0.252 F   0
   67   77   69   109.500 108.390   0.251 F   0
   68   70   67   120.000 120.542   0.179 F   0
   68   83   67   120.000 114.407   0.246 F   0
   68   83   70   120.000 125.046   0.179 F   0
   69   71   67   109.500 112.445   0.304 F   0
   69   78   67   109.500 109.636   0.251 F   0
   69   78   71   109.500 110.453   0.251 F   0
   69   79   67   109.500 109.078   0.251 F   0
   69   79   71   109.500 109.075   0.251 F   0
   69   79   78   108.600 105.934   0.208 F   0
   71   72   69   120.000 128.120   0.244 F   0
   71   73   69   120.000 125.538   0.245 F   0
   71   73   72   109.000 106.274   0.265 F   5
   72   75   71   109.000 109.773   0.265 F   5
   72   81   71   120.000 126.476   0.202 F   0
   72   81   75   120.000 123.725   0.203 F   0
   73   74   71   113.000 105.848   0.076 F   5
   73   80   71   113.000 126.802   0.174 F   0
   73   80   74   113.000 127.333   0.173 F   0
   74   75   73   109.000 111.614   0.264 F   5
   74   82   73   120.000 124.883   0.202 F   0
   74   82   75   120.000 123.501   0.202 F   0
   75   74   72   105.000 106.490   0.284 F   5
   83   84   68   113.000 120.498   0.075 F   0
   83   85   68   113.000 121.753   0.231 F   0
   83   85   84   113.000 117.605   0.120 F   0
   84   86   83   145.000 106.329   0.089 F   0
 torsion atoms        nrot   rings    phi0    phi      FC
    2    1    3   11   3      0     180.000 174.196   0.131
    2    1    3   18   3      0     180.000  52.594   0.131
    2    1    3   19   3      0     180.000  65.112   0.131
    2    1    4   11   3      0     180.000  66.007   0.126
    2    1    4   18   3      0     180.000 172.391   0.126
    2    1    4   19   3      0     180.000  54.685   0.126
    2    1   12   11   3      0     180.000  54.897   0.187
    2    1   12   18   3      0     180.000  66.705   0.187
    2    1   12   19   3      0     180.000 175.589   0.187
    3    2    5    1   3      0     180.000  70.476   0.031
    3    2    5    4   3      0     180.000  50.619   0.077
    3    2    5   12   3      0     180.000 170.625   0.115
    3    2   20    1   3      0     180.000 113.513   0.020
    3    2   20    4   3      0     180.000 125.391   0.048
    3    2   20   12   3      0     180.000   5.386   0.072
    4    2    6    1   3      0     180.000  57.484   0.039
    4    2    6    3   3      0     180.000 176.389   0.100
    4    2    6   12   3      0     180.000  63.322   0.142
    4    2   13    1   3      0     180.000  64.192   0.056
    4    2   13    3   3      0     180.000  54.714   0.142
    4    2   13   12   3      0     180.000 175.002   0.203
    4    2   14    1   3      0     180.000 179.265   0.056
    4    2   14    3   3      0     180.000  60.359   0.142
    4    2   14   12   3      0     180.000  59.929   0.203
    6    4    7    2   3      0     180.000  56.923   0.046
    6    4    7   13   3      0     180.000 178.322   0.068
    6    4    7   14   3      0     180.000  66.391   0.068
    6    4    8    2   3      0     180.000 123.969   0.037
    6    4    8   13   3      0     180.000   2.570   0.056
    6    4    8   14   3      0     180.000 112.718   0.056
    7    6   10    4   2      5       0.000 179.528   0.728
    7    6   10    8   2      5       0.000   0.277   0.618
    7    6   16    4   2      5       0.000   0.575   1.203
    7    6   16    8   2      5       0.000 179.826   1.020
    8    6    9    4   2      5       0.000 179.435   0.577
    8    6    9    7   2      5       0.000   0.169   0.601
    8    6   15    4   2      5       0.000   0.274   0.822
    8    6   15    7   2      5       0.000 178.992   0.856
    9    8   10    6   2      5       0.000   0.008   0.588
    9    8   10   15   2      5       0.000 179.145   0.839
    9    8   17    6   2      5       0.000 179.872   0.972
    9    8   17   15   2      5       0.000   0.976   1.386
   10    7    9    6   2      5       0.000   0.270   0.589
   10    7    9   16   2      5       0.000 179.830   0.839
   10    9    7    8   2      5       0.000   0.162   0.711
   10    9    7   17   2      5       0.000 179.957   1.243
   20    3   21    2   2      0     180.000 165.363   0.583
   20    3   21    5   2      0     180.000  18.683   0.790
   20    3   30    2   2      0     180.000   2.457   0.865
   20    3   30    5   2      0     180.000 178.411   1.172
   21   20   22    3   3      0     180.000 126.358   0.023
   21   20   22   30   3      0     180.000  69.682   0.032
   21   20   23    3   3      0     180.000 109.798   0.022
   21   20   23   30   3      0     180.000  54.162   0.031
   21   20   31    3   3      0     180.000   8.975   0.032
   21   20   31   30   3      0     180.000 172.935   0.046
   22   21   24   20   3      0     180.000 119.704   0.066
   22   21   24   23   3      0     180.000   3.841   0.078
   22   21   24   31   3      0     180.000 124.203   0.116
   22   21   37   20   3      0     180.000  65.387   0.041
   22   21   37   23   3      0     180.000 171.068   0.049
   22   21   37   31   3      0     180.000  50.706   0.072
   23   21   25   20   3      0     180.000  54.830   0.082
   23   21   25   22   3      0     180.000 176.983   0.100
   23   21   25   31   3      0     180.000  62.690   0.143
   23   21   32   20   3      0     180.000  66.860   0.116
   23   21   32   22   3      0     180.000  55.293   0.143
   23   21   32   31   3      0     180.000 175.621   0.203
   23   21   33   20   3      0     180.000 177.602   0.116
   23   21   33   22   3      0     180.000  60.245   0.143
   23   21   33   31   3      0     180.000  60.082   0.203
   25   23   26   21   3      0     180.000  93.269   0.046
   25   23   26   32   3      0     180.000  27.990   0.068
   25   23   26   33   3      0     180.000 144.019   0.068
   25   23   27   21   3      0     180.000  81.344   0.038
   25   23   27   32   3      0     180.000 157.397   0.056
   25   23   27   33   3      0     180.000  41.368   0.056
   26   25   29   23   2      5       0.000 175.461   0.730
   26   25   29   27   2      5       0.000   0.046   0.619
   26   25   35   23   2      5       0.000   4.242   1.206
   26   25   35   27   2      5       0.000 179.749   1.023
   27   25   28   23   2      5       0.000 175.764   0.582
   27   25   28   26   2      5       0.000   0.231   0.606
   27   25   34   23   2      5       0.000   3.078   0.830
   27   25   34   26   2      5       0.000 178.611   0.864
   28   27   29   25   2      5       0.000   0.450   0.592
   28   27   29   34   2      5       0.000 178.383   0.844
   28   27   36   25   2      5       0.000 179.893   0.979
   28   27   36   34   2      5       0.000   1.273   1.395
   29   26   28   25   2      5       0.000   0.317   0.585
   29   26   28   35   2      5       0.000 179.972   0.834
   29   28   26   27   2      5       0.000   0.475   0.705
   29   28   26   36   2      5       0.000 179.862   1.234
   37   22   38   21   2      0     180.000 174.587   0.513
   37   22   38   24   2      0     180.000  10.493   0.695
   37   22   45   21   2      0     180.000   6.053   0.761
   37   22   45   24   2      0     180.000 168.867   1.031
   38   37   39   22   3      0     180.000  81.824   0.022
   38   37   39   45   3      0     180.000  97.559   0.032
   38   37   40   22   3      0     180.000 154.351   0.021
   38   37   40   45   3      0     180.000  26.265   0.030
   38   37   46   22   3      0     180.000  35.412   0.032
   38   37   46   45   3      0     180.000 145.204   0.045
   39   38   41   37   3      0     180.000  81.584   0.069
   39   38   41   40   3      0     180.000  41.024   0.081
   39   38   41   46   3      0     180.000 162.717   0.120
   39   38   49   37   3      0     180.000 101.370   0.043
   39   38   49   40   3      0     180.000 136.023   0.051
   39   38   49   46   3      0     180.000  14.330   0.075
   40   38   42   37   3      0     180.000  45.991   0.081
   40   38   42   39   3      0     180.000  75.702   0.100
   40   38   42   46   3      0     180.000 163.016   0.143
   40   38   47   37   3      0     180.000 167.938   0.116
   40   38   47   39   3      0     180.000  46.245   0.143
   40   38   47   46   3      0     180.000  75.037   0.203
   40   38   48   37   3      0     180.000  74.111   0.116
   40   38   48   39   3      0     180.000 164.196   0.143
   40   38   48   46   3      0     180.000  42.914   0.203
   42   40   43   38   3      0     180.000  70.124   0.064
   42   40   43   47   3      0     180.000 167.315   0.095
   42   40   43   48   3      0     180.000  51.136   0.095
   42   40   44   38   3      0     180.000 109.753   0.064
   42   40   44   47   3      0     180.000  12.808   0.095
   42   40   44   48   3      0     180.000 128.987   0.095
   49   39   50   38   2      0     180.000 177.485   0.738
   49   39   50   41   2      0     180.000   5.569   1.000
   49   39   59   38   2      0     180.000  10.296   1.095
   49   39   59   41   2      0     180.000 166.650   1.483
   50   49   51   39   3      0     180.000  73.102   0.023
   50   49   51   59   3      0     180.000  99.621   0.033
   50   49   52   39   3      0     180.000 162.920   0.022
   50   49   52   59   3      0     180.000  24.358   0.032
   50   49   60   39   3      0     180.000  43.307   0.033
   50   49   60   59   3      0     180.000 143.970   0.047
   51   50   53   49   3      0     180.000  87.537   0.067
   51   50   53   52   3      0     180.000  37.720   0.080
   51   50   53   60   3      0     180.000 156.930   0.118
   51   50   66   49   3      0     180.000  93.808   0.042
   51   50   66   52   3      0     180.000 140.935   0.050
   51   50   66   60   3      0     180.000  21.724   0.074
   52   50   54   49   3      0     180.000 175.203   0.082
   52   50   54   51   3      0     180.000  52.707   0.100
   52   50   54   60   3      0     180.000  66.228   0.143
   52   50   61   49   3      0     180.000  60.756   0.116
   52   50   61   51   3      0     180.000 176.747   0.143
   52   50   61   60   3      0     180.000  57.813   0.203
   52   50   62   49   3      0     180.000  54.929   0.116
   52   50   62   51   3      0     180.000  67.567   0.143
   52   50   62   60   3      0     180.000 173.498   0.203
   54   52   55   50   3      0     180.000  16.278   0.046
   54   52   55   61   3      0     180.000 107.790   0.068
   54   52   55   62   3      0     180.000 136.407   0.068
   54   52   56   50   3      0     180.000 162.999   0.038
   54   52   56   61   3      0     180.000  72.933   0.056
   54   52   56   62   3      0     180.000  42.870   0.056
   55   54   58   52   2      5       0.000 179.293   0.729
   55   54   58   56   2      5       0.000   0.092   0.619
   55   54   64   52   2      5       0.000   0.815   1.205
   55   54   64   56   2      5       0.000 178.570   1.023
   56   54   57   52   2      5       0.000 179.140   0.584
   56   54   57   55   2      5       0.000   0.275   0.608
   56   54   63   52   2      5       0.000   0.334   0.832
   56   54   63   55   2      5       0.000 179.748   0.866
   57   56   58   54   2      5       0.000   0.383   0.594
   57   56   58   63   2      5       0.000 179.852   0.847
   57   56   65   54   2      5       0.000 179.985   0.982
   57   56   65   63   2      5       0.000   0.547   1.400
   58   55   57   54   2      5       0.000   0.138   0.583
   58   55   57   64   2      5       0.000 178.406   0.831
   58   57   55   56   2      5       0.000   0.324   0.705
   58   57   55   65   2      5       0.000 179.932   1.233
   66   51   67   50   2      0     180.000 169.855   0.625
   66   51   67   53   2      0     180.000   8.723   0.848
   66   51   76   50   2      0     180.000  10.412   0.928
   66   51   76   53   2      0     180.000 168.167   1.258
   67   66   68   51   3      0     180.000  70.130   0.023
   67   66   68   76   3      0     180.000  90.454   0.033
   67   66   69   51   3      0     180.000 165.390   0.022
   67   66   69   76   3      0     180.000  34.026   0.031
   67   66   77   51   3      0     180.000  46.624   0.033
   67   66   77   76   3      0     180.000 152.791   0.046
   68   67   70   66   3      0     180.000  89.907   0.067
   68   67   70   69   3      0     180.000  35.085   0.079
   68   67   70   77   3      0     180.000 154.338   0.117
   68   67   83   66   3      0     180.000  89.404   0.042
   68   67   83   69   3      0     180.000 145.604   0.049
   68   67   83   77   3      0     180.000  26.351   0.073
   69   67   71   66   3      0     180.000  75.684   0.081
   69   67   71   68   3      0     180.000 161.283   0.100
   69   67   71   77   3      0     180.000  42.096   0.143
   69   67   78   66   3      0     180.000  47.601   0.116
   69   67   78   68   3      0     180.000  75.432   0.143
   69   67   78   77   3      0     180.000 165.381   0.203
   69   67   79   66   3      0     180.000 163.184   0.116
   69   67   79   68   3      0     180.000  40.151   0.143
   69   67   79   77   3      0     180.000  79.036   0.203
   71   69   72   67   3      0     180.000  60.758   0.046
   71   69   72   78   3      0     180.000  62.069   0.068
   71   69   72   79   3      0     180.000 178.108   0.068
   71   69   73   67   3      0     180.000 115.845   0.037
   71   69   73   78   3      0     180.000 121.328   0.056
   71   69   73   79   3      0     180.000   5.289   0.056
   72   71   75   69   2      5       0.000 177.157   0.730
   72   71   75   73   2      5       0.000   0.036   0.620
   72   71   81   69   2      5       0.000   1.038   1.207
   72   71   81   73   2      5       0.000 178.159   1.024
   73   71   74   69   2      5       0.000 177.390   0.583
   73   71   74   72   2      5       0.000   0.173   0.606
   73   71   80   69   2      5       0.000   1.181   0.830
   73   71   80   72   2      5       0.000 178.397   0.864
   74   73   75   71   2      5       0.000   0.263   0.591
   74   73   75   80   2      5       0.000 178.297   0.842
   74   73   82   71   2      5       0.000 179.766   0.976
   74   73   82   80   2      5       0.000   1.206   1.391
   75   72   74   71   2      5       0.000   0.123   0.588
   75   72   74   81   2      5       0.000 178.379   0.837
   75   74   72   73   2      5       0.000   0.240   0.707
   75   74   72   82   2      5       0.000 179.751   1.237
   83   68   84   67   2      0     180.000 175.523   0.124
   83   68   84   70   2      0     180.000   5.202   0.168
   83   68   85   67   2      0     180.000   8.955   0.166
   83   68   85   70   2      0     180.000 170.320   0.226
   84   83   86   68   2      0     180.000  53.378   1.394
   84   83   86   85   2      0     180.000 122.326   1.986
 out-of-plane atoms          phi0    phi      FC
    3    5   20    2          0.000  -3.649  22.106
    6    8    7    4          0.000   0.592   0.431
    7   16   10    6          0.000   0.095   0.425
    8   15    6    9          0.000  -0.808   0.008
    9   17   10    8          0.000  -0.110   0.497
   20   30    3   21          0.000  14.729   0.123
   22   24   37   21          0.000  -4.623  21.392
   25   27   26   23          0.000   3.581   0.441
   26   35   29   25          0.000  -0.272   0.425
   27   34   25   28          0.000  -1.114   0.018
   28   36   29   27          0.000   0.314   0.505
   37   45   22   38          0.000  -0.549   0.407
   39   41   49   38          0.000  -2.797  26.563
   42   44   43   40          0.000  -0.122  28.342
   49   59   39   50          0.000  -6.611  -0.097
   51   53   66   50          0.000  -1.293  23.566
   54   56   55   52          0.000   0.479   0.442
   55   64   58   54          0.000  -1.367   0.422
   56   63   54   57          0.000  -0.507   0.012
   57   65   58   56          0.000  -0.364   0.505
   66   76   51   67          0.000 -17.789   0.057
   68   70   83   67          0.000   0.660  26.995
   71   73   72   69          0.000   2.265   0.442
   72   81   75   71          0.000  -1.642   0.427
   73   80   71   74          0.000  -1.375   0.020
   74   82   75   73          0.000   0.455   0.503
   83   85   68   84          0.000   3.857   0.357
          #tors  :   251
          #nmol  :   6
          #optfrag :   6

 GFN-FF setup done.

           ------------------------------------------------- 
          |                   G F N - F F                   |
          |          A general generic force-field          |
          |                  Version 1.0.3                  | 
           ------------------------------------------------- 
      * Solvation model:               ALPB
        Solvent                        water
        Parameter file                 internal GFN-FF/ALPB
        Dielectric constant                8.0200E+01
        Reference state                gsolv [1 M gas/solution]
        Free energy shift                  3.6494E-04 Eh       2.2900E-01 kcal/mol
        Temperature                        2.9815E+02 K
        Density                            1.0000E+00 kg/L
        Solvent mass                       1.8000E+01 g/mol
        Interaction kernel             P16
        Born radius scaling (c1)           1.5056E+00
        Born radii integrator          GBOBC
        Born offset                        0.0000E+00 a0       0.0000E+00 AA
        H-bond correction              true
        Ion screening                  false
        Surface tension                    1.0000E-05 Eh       1.5569E+01 dyn/cm
        Grid points                               230 per atom
          Number of HB bonds (bound hydrogen)     4090
          Number of HB bonds (unbound hydrogen)   318
          Number of XB bonds                      0

 E+G (total)                   0 d,  0 h,  0 min,  0.003 sec
 distance/D3 list               ...        0 min,  0.000 sec (  0.520%)
 non bonded repulsion           ...        0 min,  0.000 sec (  2.069%)
 dCN                            ...        0 min,  0.000 sec (  5.777%)
 EEQ energy and q               ...        0 min,  0.000 sec (  4.869%)
 D3                             ...        0 min,  0.000 sec (  9.825%)
 EEQ gradient                   ...        0 min,  0.000 sec (  4.649%)
 bonds                          ...        0 min,  0.000 sec (  0.750%)
 bend and torsion               ...        0 min,  0.000 sec (  2.289%)
 bonded ATM                     ...        0 min,  0.000 sec (  1.060%)
 HB/XB (incl list setup)        ...        0 min,  0.001 sec ( 18.988%)
 GBSA                           ...        0 min,  0.002 sec ( 52.431%)

         :::::::::::::::::::::::::::::::::::::::::::::::::::::
         ::                     SUMMARY                     ::
         :::::::::::::::::::::::::::::::::::::::::::::::::::::
         :: total energy             -16.713083252793 Eh    ::
         :: total w/o Gsolv          -16.636650935769 Eh    ::
         :: total w/o Gsasa/hb       -16.686963579794 Eh    ::
         :: gradient norm              0.185241976035 Eh/a0 ::
         ::.................................................::
         :: bond energy              -17.118865768221 Eh    ::
         :: angle energy               0.072112552509 Eh    ::
         :: torsion energy             0.023848001389 Eh    ::
         :: repulsion energy           1.131140778376 Eh    ::
         :: electrostat energy        -0.636992880251 Eh    ::
         :: dispersion energy         -0.085032799084 Eh    ::
         :: HB energy                 -0.008377301875 Eh    ::
         :: XB energy                  0.000000000000 Eh    ::
         :: bonded atm energy         -0.014483518614 Eh    ::
         :: external energy            0.000000000000 Eh    ::
         :: -> Gsolv                  -0.076432317024 Eh    ::
         ::    -> Gborn               -0.050312644025 Eh    ::
         ::    -> Gsasa               -0.000876300127 Eh    ::
         ::    -> Ghb                 -0.025608312128 Eh    ::
         ::    -> Gshift               0.000364939255 Eh    ::
         :: add. restraining           0.000000000000 Eh    ::
         :: total charge              -0.000000000000 e     ::
         ::.................................................::
         :: atomisation energy         0.000000000000 Eh    ::
         :::::::::::::::::::::::::::::::::::::::::::::::::::::

      ----------------------------------------------------------- 
     |                   =====================                   |
     |                        A N C O P T                        |
     |                   =====================                   |
     |               Approximate Normal Coordinate               |
     |                Rational Function Optimizer                |
      ----------------------------------------------------------- 

          ...................................................
          :                      SETUP                      :
          :.................................................:
          :   optimization level         verytight          :
          :   max. optcycles                    10          :
          :   ANC micro-cycles                  10          :
          :   degrees of freedom               252          :
          :.................................................:
          :   RF solver                   davidson          :
          :   write xtbopt.log                true          :
          :   linear?                        false          :
          :   energy convergence         0.1000000E-06 Eh   :
          :   grad. convergence          0.2000000E-03 Eh/α :
          :   maxmium RF displ.          1.0000000          :
          :   Hlow (freq-cutoff)         0.1000000E-01      :
          :   Hmax (freq-cutoff)         5.0000000          :
          :   S6 in model hess.         20.0000000          :
          ...................................................

generating ANC from model Hessian ...
Using GFN-FF Lindh-Hessian
 Shifting diagonal of input Hessian by    8.1297890101985557E-003
 Lowest  eigenvalues of input Hessian
    0.000000    0.000000    0.000000    0.000000    0.000000    0.000000
    0.010000    0.010449    0.013916    0.023142    0.025434    0.040157
    0.043525    0.046595    0.068618    0.073572    0.085477    0.096152
 Highest eigenvalues
    3.930243    4.032538    4.128897    4.168428    4.174773    4.389021


........................................................................
.............................. CYCLE    1 ..............................
........................................................................
     iter. time                 ...        0 min,  0.002 sec
 * total energy  :   -16.7130833 Eh     change        0.0000000E+00 Eh
   gradient norm :     0.1852420 Eh/α   predicted     0.0000000E+00 (    NaN%)
   displ. norm   :     0.1079835 α      lambda       -0.1406731E-01
   maximum displ.:     0.0347488 α      in ANC's #232, #23, #6, ...

........................................................................
.............................. CYCLE    2 ..............................
........................................................................
     iter. time                 ...        0 min,  0.002 sec
 * total energy  :   -16.7224749 Eh     change       -0.9391632E-02 Eh
   gradient norm :     0.0673464 Eh/α   predicted    -0.7126405E-02 ( -24.12%)
   displ. norm   :     0.0870361 α      lambda       -0.3024959E-02
   maximum displ.:     0.0475608 α      in ANC's #6, #5, #232, ...

........................................................................
.............................. CYCLE    3 ..............................
........................................................................
     iter. time                 ...        0 min,  0.002 sec
 * total energy  :   -16.7241690 Eh     change       -0.1694156E-02 Eh
   gradient norm :     0.0177201 Eh/α   predicted    -0.1524025E-02 ( -10.04%)
   displ. norm   :     0.0677714 α      lambda       -0.3387777E-03
   maximum displ.:     0.0434402 α      in ANC's #6, #5, #3, ...

........................................................................
.............................. CYCLE    4 ..............................
........................................................................
     iter. time                 ...        0 min,  0.002 sec
 * total energy  :   -16.7244421 Eh     change       -0.2730497E-03 Eh
   gradient norm :     0.0113856 Eh/α   predicted    -0.1740633E-03 ( -36.25%)
   displ. norm   :     0.1554159 α      lambda       -0.4518291E-03
   maximum displ.:     0.0978682 α      in ANC's #6, #3, #5, ...

........................................................................
.............................. CYCLE    5 ..............................
........................................................................
     iter. time                 ...        0 min,  0.002 sec
 * total energy  :   -16.7247351 Eh     change       -0.2930038E-03 Eh
   gradient norm :     0.0106834 Eh/α   predicted    -0.2313720E-03 ( -21.03%)
   displ. norm   :     0.1271001 α      lambda       -0.1801372E-03
   maximum displ.:     0.0762671 α      in ANC's #6, #3, #5, ...

........................................................................
.............................. CYCLE    6 ..............................
........................................................................
     iter. time                 ...        0 min,  0.002 sec
 * total energy  :   -16.7248743 Eh     change       -0.1391741E-03 Eh
   gradient norm :     0.0118173 Eh/α   predicted    -0.9153636E-04 ( -34.23%)
   displ. norm   :     0.1914345 α      lambda       -0.2246580E-03
   maximum displ.:     0.1099942 α      in ANC's #3, #6, #5, ...

........................................................................
.............................. CYCLE    7 ..............................
........................................................................
     iter. time                 ...        0 min,  0.002 sec
 * total energy  :   -16.7250236 Eh     change       -0.1493165E-03 Eh
   gradient norm :     0.0087997 Eh/α   predicted    -0.1164521E-03 ( -22.01%)
   displ. norm   :     0.1010877 α      lambda       -0.8097380E-04
   maximum displ.:     0.0642889 α      in ANC's #3, #6, #1, ...

........................................................................
.............................. CYCLE    8 ..............................
........................................................................
     iter. time                 ...        0 min,  0.002 sec
 * total energy  :   -16.7250768 Eh     change       -0.5319424E-04 Eh
   gradient norm :     0.0038581 Eh/α   predicted    -0.4090104E-04 ( -23.11%)
   displ. norm   :     0.0532545 α      lambda       -0.2672794E-04
   maximum displ.:     0.0335612 α      in ANC's #1, #3, #2, ...

........................................................................
.............................. CYCLE    9 ..............................
........................................................................
     iter. time                 ...        0 min,  0.002 sec
 * total energy  :   -16.7250954 Eh     change       -0.1861717E-04 Eh
   gradient norm :     0.0020916 Eh/α   predicted    -0.1340934E-04 ( -27.97%)
   displ. norm   :     0.0501388 α      lambda       -0.1618539E-04
   maximum displ.:     0.0322279 α      in ANC's #1, #3, #2, ...

........................................................................
.............................. CYCLE   10 ..............................
........................................................................
     iter. time                 ...        0 min,  0.002 sec
 * total energy  :   -16.7251078 Eh     change       -0.1243437E-04 Eh
   gradient norm :     0.0026855 Eh/α   predicted    -0.8125945E-05 ( -34.65%)
   displ. norm   :     0.0670997 α      lambda       -0.1744524E-04
   maximum displ.:     0.0416804 α      in ANC's #1, #3, #2, ...

   *** FAILED TO CONVERGE GEOMETRY OPTIMIZATION IN 10 ITERATIONS ***


 ANCopt (total)                0 d,  0 h,  0 min,  0.031 sec
 optimizer setup                ...        0 min,  0.000 sec (  1.093%)
 model hessian                  ...        0 min,  0.001 sec (  3.425%)
 ANC generation                 ...        0 min,  0.004 sec ( 13.251%)
 coordinate transformation      ...        0 min,  0.000 sec (  0.404%)
 single point calculation       ...        0 min,  0.024 sec ( 75.435%)
 optimization log               ...        0 min,  0.001 sec (  3.293%)
 hessian update                 ...        0 min,  0.000 sec (  0.578%)
 rational function              ...        0 min,  0.001 sec (  1.728%)

================
 final structure:
================
ATOM      1  N   HIS A   1     -21.067 -19.809  22.746  1.00  0.00           N  
ATOM      2  CA  HIS A   1     -21.099 -18.709  21.738  1.00  0.00           C  
ATOM      3  C   HIS A   1     -19.879 -18.815  20.878  1.00  0.00           C  
ATOM      4  CB  HIS A   1     -21.139 -17.329  22.399  1.00  0.00           C  
ATOM      5  O   HIS A   1     -18.776 -18.563  21.326  1.00  0.00           O  
ATOM      6  CG  HIS A   1     -22.282 -17.142  23.330  1.00  0.00           C  
ATOM      7  CD2 HIS A   1     -23.631 -17.265  23.049  1.00  0.00           C  
ATOM      8  ND1 HIS A   1     -22.200 -16.791  24.650  1.00  0.00           N  
ATOM      9  CE1 HIS A   1     -23.497 -16.724  25.100  1.00  0.00           C  
ATOM     10  NE2 HIS A   1     -24.361 -17.008  24.151  1.00  0.00           N  
ATOM     11  H   HIS A   1     -21.932 -19.849  23.300  1.00  0.00           H  
ATOM     12  HA  HIS A   1     -21.991 -18.831  21.109  1.00  0.00           H  
ATOM     13  HB2 HIS A   1     -20.203 -17.187  22.948  1.00  0.00           H  
ATOM     14  HB3 HIS A   1     -21.155 -16.547  21.634  1.00  0.00           H  
ATOM     15  HD1 HIS A   1     -21.348 -16.605  25.180  1.00  0.00           H  
ATOM     16  HD2 HIS A   1     -24.056 -17.530  22.091  1.00  0.00           H  
ATOM     17  HE1 HIS A   1     -23.784 -16.471  26.112  1.00  0.00           H  
ATOM     18  H2  HIS A   1     -20.918 -20.715  22.280  1.00  0.00           H  
ATOM     19  H3  HIS A   1     -20.276 -19.663  23.384  1.00  0.00           H  
ATOM     20  N   HIS A   2     -20.084 -19.166  19.559  1.00  0.00           N  
ATOM     21  CA  HIS A   2     -18.983 -19.609  18.735  1.00  0.00           C  
ATOM     22  C   HIS A   2     -18.923 -18.758  17.495  1.00  0.00           C  
ATOM     23  CB  HIS A   2     -19.093 -21.099  18.410  1.00  0.00           C  
ATOM     24  O   HIS A   2     -19.039 -19.221  16.377  1.00  0.00           O  
ATOM     25  CG  HIS A   2     -19.219 -21.936  19.632  1.00  0.00           C  
ATOM     26  CD2 HIS A   2     -20.389 -22.364  20.234  1.00  0.00           C  
ATOM     27  ND1 HIS A   2     -18.202 -22.351  20.446  1.00  0.00           N  
ATOM     28  CE1 HIS A   2     -18.801 -23.012  21.491  1.00  0.00           C  
ATOM     29  NE2 HIS A   2     -20.109 -23.018  21.375  1.00  0.00           N  
ATOM     30  H   HIS A   2     -21.015 -19.363  19.191  1.00  0.00           H  
ATOM     31  HA  HIS A   2     -18.068 -19.437  19.321  1.00  0.00           H  
ATOM     32  HB2 HIS A   2     -19.962 -21.256  17.764  1.00  0.00           H  
ATOM     33  HB3 HIS A   2     -18.225 -21.418  17.825  1.00  0.00           H  
ATOM     34  HD1 HIS A   2     -17.205 -22.184  20.310  1.00  0.00           H  
ATOM     35  HD2 HIS A   2     -21.392 -22.204  19.862  1.00  0.00           H  
ATOM     36  HE1 HIS A   2     -18.273 -23.469  22.318  1.00  0.00           H  
ATOM     37  N   ASP A   3     -18.744 -17.416  17.722  1.00  0.00           N  
ATOM     38  CA  ASP A   3     -18.662 -16.456  16.636  1.00  0.00           C  
ATOM     39  C   ASP A   3     -17.361 -16.622  15.901  1.00  0.00           C  
ATOM     40  CB  ASP A   3     -18.869 -15.021  17.149  1.00  0.00           C  
ATOM     41  O   ASP A   3     -16.325 -16.214  16.371  1.00  0.00           O  
ATOM     42  CG  ASP A   3     -18.040 -14.724  18.383  1.00  0.00           C  
ATOM     43  OD1 ASP A   3     -18.385 -15.292  19.414  1.00  0.00           O  
ATOM     44  OD2 ASP A   3     -17.099 -13.948  18.262  1.00  0.00           O  
ATOM     45  H   ASP A   3     -18.578 -17.060  18.673  1.00  0.00           H  
ATOM     46  HA  ASP A   3     -19.479 -16.721  15.943  1.00  0.00           H  
ATOM     47  HB2 ASP A   3     -18.617 -14.300  16.365  1.00  0.00           H  
ATOM     48  HB3 ASP A   3     -19.923 -14.865  17.408  1.00  0.00           H  
ATOM     49  N   HIS A   4     -17.453 -17.253  14.700  1.00  0.00           N  
ATOM     50  CA  HIS A   4     -16.294 -17.484  13.870  1.00  0.00           C  
ATOM     51  C   HIS A   4     -15.923 -16.190  13.189  1.00  0.00           C  
ATOM     52  CB  HIS A   4     -16.503 -18.609  12.851  1.00  0.00           C  
ATOM     53  O   HIS A   4     -16.444 -15.887  12.133  1.00  0.00           O  
ATOM     54  CG  HIS A   4     -15.363 -18.794  11.902  1.00  0.00           C  
ATOM     55  CD2 HIS A   4     -14.064 -18.320  12.000  1.00  0.00           C  
ATOM     56  ND1 HIS A   4     -15.424 -19.482  10.722  1.00  0.00           N  
ATOM     57  CE1 HIS A   4     -14.173 -19.386  10.165  1.00  0.00           C  
ATOM     58  NE2 HIS A   4     -13.353 -18.696  10.923  1.00  0.00           N  
ATOM     59  H   HIS A   4     -18.344 -17.542  14.307  1.00  0.00           H  
ATOM     60  HA  HIS A   4     -15.468 -17.762  14.542  1.00  0.00           H  
ATOM     61  HB2 HIS A   4     -16.709 -19.550  13.371  1.00  0.00           H  
ATOM     62  HB3 HIS A   4     -17.398 -18.376  12.268  1.00  0.00           H  
ATOM     63  HD1 HIS A   4     -16.239 -19.959  10.335  1.00  0.00           H  
ATOM     64  HD2 HIS A   4     -13.656 -17.711  12.795  1.00  0.00           H  
ATOM     65  HE1 HIS A   4     -13.884 -19.825   9.218  1.00  0.00           H  
ATOM     66  N   HIS A   5     -14.974 -15.425  13.847  1.00  0.00           N  
ATOM     67  CA  HIS A   5     -14.372 -14.282  13.193  1.00  0.00           C  
ATOM     68  C   HIS A   5     -13.480 -14.765  12.081  1.00  0.00           C  
ATOM     69  CB  HIS A   5     -13.619 -13.368  14.163  1.00  0.00           C  
ATOM     70  O   HIS A   5     -12.315 -14.998  12.276  1.00  0.00           O  
ATOM     71  CG  HIS A   5     -14.535 -12.539  14.991  1.00  0.00           C  
ATOM     72  CD2 HIS A   5     -15.501 -12.966  15.882  1.00  0.00           C  
ATOM     73  ND1 HIS A   5     -14.621 -11.175  14.957  1.00  0.00           N  
ATOM     74  CE1 HIS A   5     -15.626 -10.841  15.830  1.00  0.00           C  
ATOM     75  NE2 HIS A   5     -16.159 -11.905  16.383  1.00  0.00           N  
ATOM     76  H   HIS A   5     -14.444 -15.803  14.638  1.00  0.00           H  
ATOM     77  HA  HIS A   5     -15.201 -13.711  12.750  1.00  0.00           H  
ATOM     78  HB2 HIS A   5     -12.966 -13.969  14.801  1.00  0.00           H  
ATOM     79  HB3 HIS A   5     -12.957 -12.709  13.593  1.00  0.00           H  
ATOM     80  HD1 HIS A   5     -14.065 -10.542  14.384  1.00  0.00           H  
ATOM     81  HD2 HIS A   5     -15.738 -13.992  16.133  1.00  0.00           H  
ATOM     82  HE1 HIS A   5     -15.955  -9.831  16.038  1.00  0.00           H  
ATOM     83  N   ALA A   6     -14.109 -14.937  10.823  1.00  0.00           N  
ATOM     84  CA  ALA A   6     -13.387 -15.279   9.689  1.00  0.00           C  
ATOM     85  H   ALA A   6     -15.139 -14.846  10.769  1.00  0.00           H  
ATOM     86  HA  ALA A   6     -12.843 -16.170   9.893  1.00  0.00           H  
END

 Bond Distances (Angstroems)
 ---------------------------
N1-C2=1.4921         N1-H11=1.0286        N1-H18=1.0298        N1-H19=1.0266        C2-N1=1.4921         C2-C3=1.4966         
C2-C4=1.5302         C2-H12=1.0989        C3-C2=1.4966         C3-O5=1.2164         C3-N20=1.3796        C4-C2=1.5302         
C4-C6=1.4863         C4-H13=1.0940        C4-H14=1.0949        O5-C3=1.2164         C6-C4=1.4863         C6-C7=1.3831         
C6-N8=1.3680         C7-C6=1.3831         C7-N10=1.3463        C7-H16=1.0809        N8-C6=1.3680         N8-C9=1.3745         
N8-H15=1.0200        C9-N8=1.3745         C9-N10=1.3138        C9-H17=1.0819        N10-C7=1.3463        N10-C9=1.3138        
H11-N1=1.0286        H12-C2=1.0989        H13-C4=1.0940        H14-C4=1.0949        H15-N8=1.0200        H16-C7=1.0809        
H17-C9=1.0819        H18-N1=1.0298        H19-N1=1.0266        N20-C3=1.3796        N20-C21=1.4450       N20-H30=1.0203       
C21-N20=1.4450       C21-C22=1.5055       C21-C23=1.5294       C21-H31=1.0998       C22-C21=1.5055       C22-O24=1.2154       
C22-N37=1.3730       C23-C21=1.5294       C23-C25=1.4869       C23-H32=1.0942       C23-H33=1.0944       O24-C22=1.2154       
C25-C23=1.4869       C25-C26=1.3828       C25-N27=1.3669       C26-C25=1.3828       C26-N29=1.3447       C26-H35=1.0817       
N27-C25=1.3669       N27-C28=1.3737       N27-H34=1.0204       C28-N27=1.3737       C28-N29=1.3131       C28-H36=1.0834       
N29-C26=1.3447       N29-C28=1.3131       H30-N20=1.0203       H31-C21=1.0998       H32-C23=1.0942       H33-C23=1.0944       
H34-N27=1.0204       H35-C26=1.0817       H36-C28=1.0834       N37-C22=1.3730       N37-C38=1.4509       N37-H45=1.0293       
C38-N37=1.4509       C38-C39=1.5038       C38-C40=1.5378       C38-H46=1.1039       C39-C38=1.5038       C39-O41=1.2088       
C39-N49=1.3596       C40-C38=1.5378       C40-C42=1.5158       C40-H47=1.0948       C40-H48=1.0957       O41-C39=1.2088       
C42-C40=1.5158       C42-O43=1.2264       C42-O44=1.2261       O43-C42=1.2264       O44-C42=1.2261       H45-N37=1.0293       
H46-C38=1.1039       H47-C40=1.0948       H48-C40=1.0957       N49-C39=1.3596       N49-C50=1.4446       N49-H59=1.0165       
C50-N49=1.4446       C50-C51=1.5085       C50-C52=1.5324       C50-H60=1.0998       C51-C50=1.5085       C51-O53=1.2163       
C51-N66=1.3847       C52-C50=1.5324       C52-C54=1.4950       C52-H61=1.0943       C52-H62=1.0936       O53-C51=1.2163       
C54-C52=1.4950       C54-C55=1.3858       C54-N56=1.3678       C55-C54=1.3858       C55-N58=1.3441       C55-H64=1.0815       
N56-C54=1.3678       N56-C57=1.3726       N56-H63=1.0203       C57-N56=1.3726       C57-N58=1.3129       C57-H65=1.0834       
N58-C55=1.3441       N58-C57=1.3129       H59-N49=1.0165       H60-C50=1.0998       H61-C52=1.0943       H62-C52=1.0936       
H63-N56=1.0203       H64-C55=1.0815       H65-C57=1.0834       N66-C51=1.3847       N66-C67=1.4484       N66-H76=1.0243       
C67-N66=1.4484       C67-C68=1.5052       C67-C69=1.5306       C67-H77=1.0995       C68-C67=1.5052       C68-O70=1.2032       
C68-N83=1.4165       C69-C67=1.5306       C69-C71=1.4865       C69-H78=1.0935       C69-H79=1.0940       O70-C68=1.2032       
C71-C69=1.4865       C71-C72=1.3823       C71-N73=1.3675       C72-C71=1.3823       C72-N75=1.3452       C72-H81=1.0833       
N73-C71=1.3675       N73-C74=1.3722       N73-H80=1.0190       C74-N73=1.3722       C74-N75=1.3120       C74-H82=1.0824       
N75-C72=1.3452       N75-C74=1.3120       H76-N66=1.0243       H77-C67=1.0995       H78-C69=1.0935       H79-C69=1.0940       
H80-N73=1.0190       H81-C72=1.0833       H82-C74=1.0824       N83-C68=1.4165       N83-C84=1.3878       N83-H85=1.0353       
C84-N83=1.3878       C84-H86=1.0643       H85-N83=1.0353       H86-C84=1.0643       
 C  H  Rav=1.0903 sigma=0.0089  Rmin=1.0643  Rmax=1.1039    24
 C  C  Rav=1.4834 sigma=0.0539  Rmin=1.3823  Rmax=1.5378    19
 N  H  Rav=1.0242 sigma=0.0054  Rmin=1.0165  Rmax=1.0353    12
 N  C  Rav=1.3769 sigma=0.0455  Rmin=1.3120  Rmax=1.4921    27
 O  C  Rav=1.2161 sigma=0.0078  Rmin=1.2032  Rmax=1.2264     7

 selected bond angles (degree)
 --------------------
H11-N1-C2=112.02               H18-N1-C2=110.28               H18-N1-H11=109.29              H19-N1-C2=109.35               
H19-N1-H11=108.63              H19-N1-H18=107.14              C3-C2-N1=108.56                C4-C2-N1=111.91                
C4-C2-C3=109.51                H12-C2-N1=108.81               H12-C2-C3=108.97               H12-C2-C4=109.05               
O5-C3-C2=120.81                N20-C3-C2=116.50               N20-C3-O5=122.65               C6-C4-C2=113.88                
H13-C4-C2=108.18               H13-C4-C6=109.10               H14-C4-C2=110.03               H14-C4-C6=109.64               
H14-C4-H13=105.67              C7-C6-C4=127.70                N8-C6-C4=126.18                N8-C6-C7=106.12                
N10-C7-C6=110.18               H16-C7-C6=125.81               H16-C7-N10=124.01              C9-N8-C6=105.75                
H15-N8-C6=126.73               H15-N8-C9=127.51               N10-C9-N8=111.92               H17-C9-N8=124.56               
H17-C9-N10=123.52              C9-N10-C7=106.03               

 selected dihedral angles (degree)
 ---------------------------------
C3-C2-N1-H11=186.29           C3-C2-N1-H18=308.25           C3-C2-N1-H19= 65.81           C4-C2-N1-H11= 65.32           
C4-C2-N1-H18=187.28           C4-C2-N1-H19=304.84           H12-C2-N1-H11=304.75          H12-C2-N1-H18= 66.71          
H12-C2-N1-H19=184.27          O5-C3-C2-N1=290.01            O5-C3-C2-C4= 52.45            O5-C3-C2-H12=171.64           
N20-C3-C2-N1=112.11           N20-C3-C2-C4=234.55           N20-C3-C2-H12=353.75          C6-C4-C2-N1=303.19            
C6-C4-C2-C3=182.77            C6-C4-C2-H12= 63.62           H13-C4-C2-N1= 64.65           H13-C4-C2-C3=304.23           
H13-C4-C2-H12=185.09          H14-C4-C2-N1=179.64           H14-C4-C2-C3= 59.22           H14-C4-C2-H12=300.07          
C7-C6-C4-C2=302.65            C7-C6-C4-H13=181.70           C7-C6-C4-H14= 66.41           N8-C6-C4-C2=123.50            
N8-C6-C4-H13=  2.55           N8-C6-C4-H14=247.27           N10-C7-C6-C4=180.47           N10-C7-C6-N8=359.75           
H16-C7-C6-C4=  0.53           H16-C7-C6-N8=179.81           C9-N8-C6-C4=179.45            C9-N8-C6-C7=  0.16            
H15-N8-C6-C4=  0.30           H15-N8-C6-C7=181.00           N10-C9-N8-C6=  0.00           N10-C9-N8-H15=179.13          
H17-C9-N8-C6=179.90           H17-C9-N8-H15=359.05          C9-N10-C7-C6=  0.24           C9-N10-C7-H16=180.19          
C7-N10-C9-N8=359.86           C7-N10-C9-H17=179.94          
           -------------------------------------------------
          |                Final Singlepoint                |
           -------------------------------------------------
         :::::::::::::::::::::::::::::::::::::::::::::::::::::
         ::                     SUMMARY                     ::
         :::::::::::::::::::::::::::::::::::::::::::::::::::::
         :: total energy             -16.725120818162 Eh    ::
         :: total w/o Gsolv          -16.648756452264 Eh    ::
         :: total w/o Gsasa/hb       -16.699368310195 Eh    ::
         :: gradient norm              0.002852922045 Eh/a0 ::
         ::.................................................::
         :: bond energy              -17.142485895308 Eh    ::
         :: angle energy               0.071046624736 Eh    ::
         :: torsion energy             0.024217114520 Eh    ::
         :: repulsion energy           1.137623835565 Eh    ::
         :: electrostat energy        -0.636539257280 Eh    ::
         :: dispersion energy         -0.085059771945 Eh    ::
         :: HB energy                 -0.008126615705 Eh    ::
         :: XB energy                  0.000000000000 Eh    ::
         :: bonded atm energy         -0.014824621536 Eh    ::
         :: external energy            0.000000000000 Eh    ::
         :: -> Gsolv                  -0.076364365898 Eh    ::
         ::    -> Gborn               -0.050611857931 Eh    ::
         ::    -> Gsasa               -0.000620780845 Eh    ::
         ::    -> Ghb                 -0.025496666377 Eh    ::
         ::    -> Gshift               0.000364939255 Eh    ::
         :: add. restraining           0.005392134689 Eh    ::
         :: total charge              -0.000000000000 e     ::
         ::.................................................::
         :: atomisation energy         0.000000000000 Eh    ::
         :::::::::::::::::::::::::::::::::::::::::::::::::::::

           -------------------------------------------------
          |                Property Printout                |
           -------------------------------------------------
           -------------------------------------------------
          |                Geometry Summary                 |
           -------------------------------------------------

      molecular mass/u    :      692.6868875
   center of mass at/Å    :      -17.6389979     -17.1344081      17.0056583
  moments of inertia/u·Å² :        0.5599414E+04   0.1935493E+05   0.2362378E+05
rotational constants/cm⁻¹ :        0.3010607E-02   0.8709737E-03   0.7135875E-03

 * 81 selected distances

     #   Z          #   Z                                           value/Å
     1   7  N       2   6  C                                      1.4920726
     2   6  C       4   6  C                                      1.5302065
     3   6  C       5   8  O                                      1.2164360
     4   6  C       6   6  C                                      1.4863135
     6   6  C       7   6  C                                      1.3831451
     6   6  C       8   7  N                                      1.3679593
     8   7  N       9   6  C                                      1.3745094
     7   6  C      10   7  N                                      1.3462715
     9   6  C      10   7  N                                      1.3138291
     1   7  N      11   1  H                                      1.0285813
     2   6  C      12   1  H                                      1.0989351
     4   6  C      13   1  H                                      1.0939600
     4   6  C      14   1  H                                      1.0948765
     8   7  N      15   1  H                                      1.0200230
     7   6  C      16   1  H                                      1.0808824
     9   6  C      17   1  H                                      1.0819414
     1   7  N      18   1  H                                      1.0297530
     1   7  N      19   1  H                                      1.0265716
     3   6  C      20   7  N                                      1.3796476
    20   7  N      21   6  C                                      1.4449699
    21   6  C      23   6  C                                      1.5293611
    22   6  C      24   8  O                                      1.2154173
    23   6  C      25   6  C                                      1.4869215
    25   6  C      26   6  C                                      1.3828468
    25   6  C      27   7  N                                      1.3668565
    27   7  N      28   6  C                                      1.3737430
    26   6  C      29   7  N                                      1.3446832
    28   6  C      29   7  N                                      1.3130804
    20   7  N      30   1  H                                      1.0203043
    21   6  C      31   1  H                                      1.0997992
    23   6  C      32   1  H                                      1.0942132
    23   6  C      33   1  H                                      1.0943586
    27   7  N      34   1  H                                      1.0204325
    26   6  C      35   1  H                                      1.0817369
    28   6  C      36   1  H                                      1.0833729
    22   6  C      37   7  N                                      1.3729959
    37   7  N      38   6  C                                      1.4508729
    38   6  C      40   6  C                                      1.5377903 (max)
    39   6  C      41   8  O                                      1.2088342
    42   6  C      43   8  O                                      1.2264421
    42   6  C      44   8  O                                      1.2260799
    37   7  N      45   1  H                                      1.0292983
    38   6  C      46   1  H                                      1.1038830
    40   6  C      47   1  H                                      1.0947987
    40   6  C      48   1  H                                      1.0956846
    39   6  C      49   7  N                                      1.3596121
    49   7  N      50   6  C                                      1.4445872
    50   6  C      52   6  C                                      1.5324213
    51   6  C      53   8  O                                      1.2163033
    52   6  C      54   6  C                                      1.4949784
    54   6  C      55   6  C                                      1.3857993
    54   6  C      56   7  N                                      1.3677687
    56   7  N      57   6  C                                      1.3725953
    55   6  C      58   7  N                                      1.3441238
    57   6  C      58   7  N                                      1.3128525
    49   7  N      59   1  H                                      1.0164781 (min)
    50   6  C      60   1  H                                      1.0997997
    52   6  C      61   1  H                                      1.0943259
    52   6  C      62   1  H                                      1.0935908
    56   7  N      63   1  H                                      1.0202625
    55   6  C      64   1  H                                      1.0815045
    57   6  C      65   1  H                                      1.0834183
    51   6  C      66   7  N                                      1.3847489
    66   7  N      67   6  C                                      1.4484082
    67   6  C      69   6  C                                      1.5306467
    68   6  C      70   8  O                                      1.2032177
    69   6  C      71   6  C                                      1.4865464
    71   6  C      72   6  C                                      1.3823256
    71   6  C      73   7  N                                      1.3674784
    73   7  N      74   6  C                                      1.3721939
    72   6  C      75   7  N                                      1.3451822
    74   6  C      75   7  N                                      1.3119632
    66   7  N      76   1  H                                      1.0242572
    67   6  C      77   1  H                                      1.0995376
    69   6  C      78   1  H                                      1.0934611
    69   6  C      79   1  H                                      1.0939787
    73   7  N      80   1  H                                      1.0189872
    72   6  C      81   1  H                                      1.0833495
    74   6  C      82   1  H                                      1.0823814
    68   6  C      83   7  N                                      1.4164633
    83   7  N      85   1  H                                      1.0352986

 * 5 distinct bonds (by element types)

   Z      Z             #   av. dist./Å        max./Å        min./Å
   1 H    6 C          23     1.0914691     1.1038830     1.0808824
   6 C    6 C          13     1.4730233     1.5377903     1.3823256
   1 H    7 N          12     1.0241873     1.0352986     1.0164781
   6 C    7 N          26     1.3765180     1.4920726     1.3119632
   6 C    8 O           7     1.2161043     1.2264421     1.2032177


optimized geometry written to: xtbopt.pdb


           -------------------------------------------------
          | TOTAL ENERGY              -16.725120818162 Eh   |
          | GRADIENT NORM               0.002852922045 Eh/α |
           -------------------------------------------------
########################################################################
[WARNING] Runtime exception occurred
-1- gfnff_setup: Could not read topology file.
########################################################################

------------------------------------------------------------------------
 unit  open   action     filename
   10 false : read       xtb_settings.inp
   10 false : read       substructure_3.pdb
   10 false : read       xtb_settings.inp
   10 false : written    gfnff_topo
   10 false : written    gfnff_adjacency
   10 false : written    gfnff_charges
   10 false : deleted    .xtboptok
   10 false : replaced   xtbopt.log
   11 false : created    .xtboptok
   11 false : replaced   gfnff_charges
   10 false : replaced   xtbopt.pdb

------------------------------------------------------------------------
 * finished run on 2025/05/27 at 09:37:31.129     
------------------------------------------------------------------------
 total:
 * wall-time:     0 d,  0 h,  0 min,  0.045 sec
 *  cpu-time:     0 d,  0 h,  0 min,  0.045 sec
 * ratio c/w:     1.000 speedup
 SCF:
 * wall-time:     0 d,  0 h,  0 min,  0.003 sec
 *  cpu-time:     0 d,  0 h,  0 min,  0.003 sec
 * ratio c/w:     1.000 speedup
 ANC optimizer:
 * wall-time:     0 d,  0 h,  0 min,  0.034 sec
 *  cpu-time:     0 d,  0 h,  0 min,  0.034 sec
 * ratio c/w:     0.999 speedup

