86
 energy: -16.722400844673 gnorm: 0.181526914908 xtb: 6.6.1 (8d0f1dd)
 N         -21.00700000000000      -19.77100000000000       22.77200000000000
 C         -21.10800000000000      -18.71000000000000       21.72800000000000
 C         -19.90100000000000      -18.80300000000000       20.84500000000000
 C         -21.21200000000000      -17.31600000000000       22.34800000000000
 O         -18.79500000000000      -18.61900000000000       21.31300000000000
 C         -22.39500000000000      -17.15600000000000       23.23300000000000
 C         -23.72900000000000      -17.19300000000000       22.86500000000000
 N         -22.38000000000000      -16.97300000000000       24.58900000000000
 C         -23.69900000000000      -16.90300000000000       24.97000000000000
 N         -24.51300000000000      -17.03600000000000       23.94800000000000
 H         -21.85200000000000      -19.82300000000000       23.35700000000000
 H         -22.00700000000000      -18.89800000000000       21.12300000000000
 H         -20.30099999999999      -17.12200000000000       22.91900000000000
 H         -21.23700000000000      -16.55500000000000       21.56000000000000
 H         -21.55700000000000      -16.89300000000000       25.18500000000000
 H         -24.10400000000000      -17.33000000000000       21.86100000000000
 H         -24.03800000000000      -16.76000000000000       25.98800000000000
 H         -20.83800000000000      -20.69000000000000       22.32600000000000
 H         -20.20000000000000      -19.57500000000000       23.37500000000000
 N         -20.10300000000000      -19.13500000000000       19.52500000000000
 C         -18.98300000000000      -19.60600000000000       18.73800000000000
 C         -18.85300000000000      -18.75600000000000       17.49500000000000
 C         -19.13100000000000      -21.09700000000000       18.40900000000000
 O         -19.05300000000000      -19.18700000000000       16.37600000000000
 C         -19.37400000000000      -21.90300000000000       19.63600000000000
 C         -20.59900000000000      -22.21800000000000       20.19600000000000
 N         -18.43100000000000      -22.32600000000000       20.53100000000000
 C         -19.12600000000000      -22.87600000000000       21.58000000000000
 N         -20.42400000000000      -22.80000000000000       21.39500000000000
 H         -21.02600000000000      -19.39700000000000       19.17600000000000
 H         -18.08900000000000      -19.46500000000000       19.35200000000000
 H         -19.96100000000000      -21.22700000000000       17.71000000000000
 H         -18.23800000000000      -21.45900000000000       17.88900000000000
 H         -17.42100000000000      -22.20800000000000       20.45500000000000
 H         -21.56900000000000      -21.99900000000000       19.77000000000000
 H         -18.67400000000000      -23.29900000000000       22.46900000000000
 N         -18.53400000000000      -17.43500000000000       17.70600000000000
 C         -18.65700000000000      -16.46300000000000       16.63300000000000
 C         -17.41800000000000      -16.46800000000000       15.78800000000000
 C         -19.00600000000000      -15.06200000000000       17.17700000000000
 O         -16.48300000000000      -15.75500000000000       16.06900000000000
 C         -18.11900000000000      -14.64300000000000       18.33200000000000
 O         -18.23800000000000      -15.28700000000000       19.36900000000000
 O         -17.36400000000000      -13.69500000000000       18.14699999999999
 H         -18.46000000000000      -17.06000000000000       18.66100000000000
 H         -19.49100000000000      -16.81700000000000       16.00100000000000
 H         -18.92100000000000      -14.31800000000000       16.37900000000000
 H         -20.04400000000000      -15.04400000000000       17.52800000000000
 N         -17.44700000000000      -17.32600000000000       14.72600000000000
 C         -16.29600000000000      -17.48600000000000       13.86900000000000
 C         -15.90800000000000      -16.18800000000000       13.22100000000000
 C         -16.49200000000000      -18.59700000000000       12.83100000000000
 O         -16.44200000000000      -15.85100000000000       12.18600000000000
 C         -15.24400000000000      -18.98600000000000       12.11800000000000
 C         -14.36000000000000      -18.16000000000000       11.45300000000000
 N         -14.75500000000000      -20.25500000000000       11.97000000000000
 C         -13.60500000000000      -20.13100000000000       11.22900000000000
 N         -13.36200000000000      -18.88000000000000       10.91400000000000
 H         -18.14400000000000      -18.07500000000000       14.68600000000000
 H         -15.45700000000000      -17.79500000000000       14.53700000000000
 H         -16.91700000000000      -19.48100000000000       13.31400000000000
 H         -17.23300000000000      -18.25200000000000       12.10300000000000
 H         -15.16600000000000      -21.11500000000000       12.33200000000000
 H         -14.43600000000000      -17.08600000000000       11.37900000000000
 H         -12.96900000000000      -20.95600000000000       10.93200000000000
 N         -14.94600000000000      -15.43600000000000       13.84800000000000
 C         -14.36800000000000      -14.28800000000000       13.19200000000000
 C         -13.49300000000000      -14.73800000000000       12.05500000000000
 C         -13.60600000000000      -13.37200000000000       14.16000000000000
 O         -12.31400000000000      -14.95700000000000       12.23800000000000
 C         -14.49800000000000      -12.46200000000000       14.92700000000000
 C         -15.58500000000000      -12.79000000000000       15.71600000000000
 N         -14.41300000000000      -11.09700000000000       14.94400000000000
 C         -15.44600000000000      -10.66600000000000       15.73700000000000
 N         -16.15300000000000      -11.67100000000000       16.19900000000000
 H         -14.44800000000000      -15.78400000000000       14.66700000000000
 H         -15.20700000000000      -13.71300000000000       12.76600000000000
 H         -13.00400000000000      -13.97800000000000       14.84200000000000
 H         -12.89300000000000      -12.77000000000000       13.58900000000000
 H         -13.72500000000000      -10.52100000000000       14.45900000000000
 H         -15.95800000000000      -13.78600000000000       15.91700000000000
 H         -15.66400000000000       -9.62900000000000       15.95800000000000
 N         -14.12100000000000      -14.89900000000000       10.84400000000000
 C         -13.37200000000000      -15.28800000000000        9.66200000000000
 H         -15.14600000000000      -14.89000000000000       10.77500000000000
 H         -12.82600000000000      -16.20600000000000        9.92800000000000
86
 energy: -16.730664473189 gnorm: 0.064925854894 xtb: 6.6.1 (8d0f1dd)
 N         -21.00719411038927      -19.77097523883447       22.77195451628202
 C         -21.10833805806472      -18.70926176233306       21.72907180915834
 C         -19.90095003137613      -18.80305255782241       20.84503187832808
 C         -21.21211677220187      -17.31563954569719       22.34771763946030
 O         -18.79498136526448      -18.61916411066263       21.31286099142781
 C         -22.39526168314217      -17.15591733571431       23.23287072537412
 C         -23.72875764207388      -17.19285040874654       22.86506693354107
 N         -22.38024018588820      -16.97293218672140       24.58865901247750
 C         -23.69900435134710      -16.90295668142166       24.96987457198457
 N         -24.51306844547587      -17.03583149291994       23.94774332013395
 H         -21.85196953105947      -19.82298921064674       23.35688729126734
 H         -22.00702179897900      -18.89784715276206       21.12294076964895
 H         -20.30089436423424      -17.12201283576354       22.91896982609789
 H         -21.23686817585246      -16.55512641567522       21.55994084710206
 H         -21.55697710572431      -16.89292770769266       25.18487863416313
 H         -24.10396474980760      -17.32989427698649       21.86079895353102
 H         -24.03794483055317      -16.75990158214860       25.98789969635899
 H         -20.83823555003431      -20.68984411267951       22.32577760798884
 H         -20.19994602324637      -19.57501163719508       23.37491985089060
 N         -20.10318790227406      -19.13539369183747       19.52442766847480
 C         -18.98468074589603      -19.60758979586783       18.73443035746886
 C         -18.85321214304159      -18.75617978958656       17.49447911329168
 C         -19.13090162084427      -21.09715068794664       18.40892889161477
 O         -19.05350094629368      -19.18661467909391       16.37574723021692
 C         -19.37411221999182      -21.90299801012637       19.63595902629078
 C         -20.59916910201082      -22.21791415974923       20.19590599361812
 N         -18.43128599245843      -22.32600353352666       20.53101079819789
 C         -19.12631033900483      -22.87598537334988       21.57997214916890
 N         -20.42403578056206      -22.79996239751167       21.39493764199218
 H         -21.02615908295511      -19.39693597673307       19.17588163298250
 H         -18.08849660670462      -19.46524286611137       19.35207580076778
 H         -19.96138136240726      -21.22704003866349       17.70970565705863
 H         -18.23835817056800      -21.45907980374422       17.88885423650450
 H         -17.42107072141795      -22.20799212910175       20.45503260750606
 H         -21.56907906878516      -21.99893250626990       19.76994285268873
 H         -18.67423608191088      -23.29897762878186       22.46893096922166
 N         -18.53540357578174      -17.43462865903922       17.70621850425993
 C         -18.65931914976331      -16.46002700354616       16.63461244130935
 C         -17.41799429060313      -16.46814814814570       15.78845854476631
 C         -19.00663627524939      -15.06102386350934       17.17770172175978
 O         -16.48245171845934      -15.75590317092891       16.06995905152644
 C         -18.11912430298458      -14.64270383849562       18.33241415351629
 O         -18.23825064434883      -15.28671139794709       19.36913552868916
 O         -17.36383995012746      -13.69484526435706       18.14757214233788
 H         -18.46095768783289      -17.06032059542538       18.66182843891337
 H         -19.49214281713843      -16.81548055708486       16.00150025527592
 H         -18.92122803547921      -14.31695328005261       16.37920501141993
 H         -20.04433245175717      -15.04296649627544       17.52850909844060
 N         -17.44572743501707      -17.32648834036761       14.72676579524762
 C         -16.28982709865984      -17.49057792442533       13.87184729182994
 C         -15.90685581474045      -16.18822181828174       13.22197581881557
 C         -16.49140980980954      -18.59752096201743       12.83125839643043
 O         -16.44110724075038      -15.85071989907947       12.18649364945069
 C         -15.24294581212342      -18.98665764598459       12.11861190579399
 C         -14.35881294157032      -18.16059668850934       11.45368750462602
 N         -14.75383924467301      -20.25553783548598       11.97069388013190
 C         -13.60374081605402      -20.13143186626267       11.22973460913489
 N         -13.36054516279106      -18.88037695917941       10.91495215347276
 H         -18.14365024192950      -18.07495293318917       14.68617379376592
 H         -15.45798658213647      -17.79499390889384       14.53631369946673
 H         -16.91658874187395      -19.48150263968423       13.31424315348258
 H         -17.23242532414751      -18.25236130508481       12.10334821039567
 H         -15.16486929416748      -21.11539644967638       12.33262092873793
 H         -14.43511937234801      -17.08709044295711       11.37953398936641
 H         -12.96768228444944      -20.95616210341193       10.93272640696387
 N         -14.94512970317262      -15.43607755863391       13.84864052967261
 C         -14.36636374854479      -14.28691687051604       13.19260960342607
 C         -13.48490656173287      -14.74147227086481       12.05865886935356
 C         -13.60570030766644      -13.37196592549857       14.16053500854791
 O         -12.31234289480030      -14.95859325415107       12.24164651472773
 C         -14.49822319853360      -12.46202116214979       14.92681655222407
 C         -15.58532500822457      -12.78990348960638       15.71555515519499
 N         -14.41325179654628      -11.09702719509374       14.94371459628778
 C         -15.44644945556206      -10.66613106828515       15.73655693837056
 N         -16.15341342116112      -11.67103934405142       16.19844331638859
 H         -14.44735826193254      -15.78419401162016       14.66756583192496
 H         -15.20519820468662      -13.71383658083624       12.76632015970634
 H         -13.00370229536625      -13.97803542297646       14.84259952550948
 H         -12.89253362260517      -12.77004105159957       13.58957637986806
 H         -13.72535294207295      -10.52100889358334       14.45897316889961
 H         -15.95845041315813      -13.78617135018581       15.91660143856066
 H         -15.66460976838879       -9.62901723816834       15.95751212874378
 N         -14.11094199137958      -14.90960222227320       10.82702227334940
 C         -13.38485110972417      -15.28254969371583        9.68041450365213
 H         -15.14064850533074      -14.89396888953147       10.77392770314454
 H         -12.84952001080209      -16.18799518893486        9.90812622083786
86
 energy: -16.731852129020 gnorm: 0.014880926794 xtb: 6.6.1 (8d0f1dd)
 N         -21.00731975916535      -19.77100075836917       22.77188675275955
 C         -21.10833938854486      -18.70886557273680       21.72960411141276
 C         -19.90088983553353      -18.80300971655320       20.84511914069193
 C         -21.21217715176316      -17.31554951959513       22.34758301472571
 O         -18.79503211331880      -18.61913424706278       21.31286257688757
 C         -22.39542149211826      -17.15592697734420       23.23282735740653
 C         -23.72865823078698      -17.19277377662019       22.86514996545948
 N         -22.38043565470209      -16.97291027110096       24.58852034992311
 C         -23.69906486916201      -16.90297051371653       24.96989870676591
 N         -24.51322884032751      -17.03574914767815       23.94761323189747
 H         -21.85208263527344      -19.82293653198287       23.35679506558767
 H         -22.00695701864705      -18.89784064036281       21.12292440914457
 H         -20.30085840653131      -17.12207526210976       22.91903884969685
 H         -21.23678854625193      -16.55512936567215       21.56001909087108
 H         -21.55704762912343      -16.89291731629663       25.18489464396285
 H         -24.10403853695243      -17.32984901697531       21.86074551087183
 H         -24.03796745932758      -16.75983951374998       25.98791835457753
 H         -20.83832039185804      -20.68983648825904       22.32576078369945
 H         -20.19999599296592      -19.57499561874115       23.37490399573783
 N         -20.10324238060915      -19.13533737492606       19.52447362613556
 C         -18.98618948375836      -19.60851435339884       18.73250309536597
 C         -18.85312717851392      -18.75619531373174       17.49452546367471
 C         -19.13077194149325      -21.09704478725924       18.40907798718557
 O         -19.05326857812672      -19.18674105452294       16.37589638562950
 C         -19.37420105040011      -21.90297560392426       19.63595706428904
 C         -20.59933566845697      -22.21784561007991       20.19584642620055
 N         -18.43146646311419      -22.32599009046973       20.53102759233968
 C         -19.12650343108548      -22.87596700069588       21.57998340316881
 N         -20.42407436543017      -22.79993346729725       21.39492245172022
 H         -21.02613346271562      -19.39674376500766       19.17595818890105
 H         -18.08876091868576      -19.46509861408776       19.35216254828275
 H         -19.96154402365333      -21.22693540810836       17.70962721541314
 H         -18.23842170867860      -21.45902783102297       17.88890182747259
 H         -17.42114989210205      -22.20795076658508       20.45507718864622
 H         -21.56919772532580      -21.99885701008561       19.76989053042793
 H         -18.67434667888860      -23.29896905651680       22.46891379960866
 N         -18.53582478665519      -17.43453881637011       17.70604058708768
 C         -18.66029209846601      -16.45865293577139       16.63499085941876
 C         -17.41814774262912      -16.46864223284746       15.78817589261119
 C         -19.00649182271295      -15.06119573967147       17.17746676595412
 O         -16.48249096803109      -15.75659097978951       16.06979569879505
 C         -18.11888624819893      -14.64301980788954       18.33222445549007
 O         -18.23813254495889      -15.28706199625652       19.36876850178550
 O         -17.36361775396632      -13.69503617871342       18.14765825071054
 H         -18.46132858708330      -17.06014772401025       18.66180735499819
 H         -19.49213216503244      -16.81561056547761       16.00121689432056
 H         -18.92090670824204      -14.31687607242248       16.37881457144831
 H         -20.04408548864865      -15.04311666253485       17.52823624984614
 N         -17.44540207704964      -17.32637205814335       14.72683715031643
 C         -16.28528389992233      -17.49328989656785       13.87400851896763
 C         -15.90666826138024      -16.18824337123981       13.22219162173088
 C         -16.49131792837517      -18.59731737606317       12.83140310479173
 O         -16.44096690677135      -15.85038037185954       12.18675682758146
 C         -15.24251089172523      -18.98677637064921       12.11894122228351
 C         -14.35820633079312      -18.16071926492443       11.45413632965979
 N         -14.75331214531538      -20.25561901515783       11.97108357938218
 C         -13.60316960176685      -20.13146546070413       11.23015395121262
 N         -13.35974441750357      -18.88037817421381       10.91554553878562
 H         -18.14344817962371      -18.07485144450753       14.68629089788317
 H         -15.45753957728426      -17.79488486548520       14.53673554595907
 H         -16.91652005745047      -19.48142489411699       13.31434924306278
 H         -17.23226213269714      -18.25237820265326       12.10353861140078
 H         -15.16443380576657      -21.11542462917378       12.33292928000630
 H         -14.43483556595812      -17.08740243715864       11.37980763132857
 H         -12.96706107494312      -20.95605286971716       10.93312942194847
 N         -14.94526382502172      -15.43601041469437       13.84876446749329
 C         -14.36652208261962      -14.28563249465298       13.19335556140582
 C         -13.48222909852876      -14.74209082447688       12.06302332959245
 C         -13.60571362978734      -13.37190840621598       14.16071263755349
 O         -12.31264388641078      -14.95845384616530       12.24134267120551
 C         -14.49819452680329      -12.46200850005929       14.92691461372029
 C         -15.58528553293553      -12.78982606757455       15.71561621940391
 N         -14.41317852456284      -11.09701030308346       14.94373078055763
 C         -15.44644740318998      -10.66614779976264       15.73658797853972
 N         -16.15337930856971      -11.67102209761521       16.19849798006195
 H         -14.44739552290706      -15.78416920230587       14.66759572396672
 H         -15.20504534519961      -13.71394598374432       12.76654207035115
 H         -13.00353594426983      -13.97807076387860       14.84268676447051
 H         -12.89249744227684      -12.77002225021863       13.58960630960967
 H         -13.72536663682673      -10.52096083818960       14.45905627259095
 H         -15.95842534988115      -13.78619741830957       15.91667997442419
 H         -15.66467792821898       -9.62897901811964       15.95751663327394
 N         -14.10734978952504      -14.91614014067284       10.81632946496772
 C         -13.38748063687664      -15.28177814504033        9.68800439253227
 H         -15.14042986292522      -14.89101988041641       10.77702276833360
 H         -12.85955905032029      -16.18369782806633        9.89856812063645
86
 energy: -16.731936811509 gnorm: 0.006798269792 xtb: 6.6.1 (8d0f1dd)
 N         -21.00733407338394      -19.77102066854230       22.77190014744291
 C         -21.10826657039278      -18.70882945439915       21.72968038695912
 C         -19.90085006093119      -18.80300300944602       20.84517453589921
 C         -21.21218046593940      -17.31557411110992       22.34761624944405
 O         -18.79502408295880      -18.61910538121294       21.31291751381482
 C         -22.39542766783480      -17.15593650745356       23.23286928481313
 C         -23.72863740144733      -17.19276497708844       22.86521681357658
 N         -22.38046862392240      -16.97290611218824       24.58854449510146
 C         -23.69907077866803      -16.90300290525353       24.96996258715376
 N         -24.51327684034538      -17.03576008815084       23.94763004368671
 H         -21.85210769676815      -19.82292991544400       23.35682503407377
 H         -22.00693702679624      -18.89785096284211       21.12298697278425
 H         -20.30085506448921      -17.12207590668018       22.91909277541028
 H         -21.23678398511763      -16.55511153981291       21.56008410245686
 H         -21.55707528589797      -16.89291863687721       25.18493921984981
 H         -24.10405730346042      -17.32984947179106       21.86080131031119
 H         -24.03797252343412      -16.75984022337795       25.98796913111601
 H         -20.83829295888865      -20.68984811669331       22.32581449371240
 H         -20.20000945627219      -19.57498916989019       23.37493500081609
 N         -20.10318593070826      -19.13523537987292       19.52463667500170
 C         -18.98660777566067      -19.60866306767555       18.73224547138681
 C         -18.85303353830844      -18.75610820783020       17.49466402419536
 C         -19.13072644486297      -21.09698979511839       18.40914793121540
 O         -19.05313199282979      -19.18681092330310       16.37599929188760
 C         -19.37421318073267      -21.90297053693635       19.63597613224744
 C         -20.59936516697692      -22.21783121228898       20.19586258442711
 N         -18.43147141879358      -22.32597699018969       20.53104272079289
 C         -19.12650140571887      -22.87595007248604       21.58001544324789
 N         -20.42405261941737      -22.79992345791699       21.39495408574778
 H         -21.02607039198348      -19.39673906143824       19.17600720517235
 H         -18.08896708595229      -19.46503335416692       19.35210201934941
 H         -19.96155363573187      -21.22691686881027       17.70965039629570
 H         -18.23839819205002      -21.45901891623105       17.88893462994183
 H         -17.42115212661679      -22.20792016941885       20.45510159065537
 H         -21.56922110569244      -21.99883806480725       19.76990960765308
 H         -18.67431412213438      -23.29895232567162       22.46893975468245
 N         -18.53560237543376      -17.43462212293695       17.70588107079274
 C         -18.66037317825780      -16.45862882229454       16.63492705302264
 C         -17.41845751471169      -16.46887329867075       15.78785054509784
 C         -19.00627086892641      -15.06152658012570       17.17717814606342
 O         -16.48290867422631      -15.75662250897332       16.06938171726355
 C         -18.11862006556253      -14.64317127607570       18.33192169156364
 O         -18.23784896730480      -15.28711965920656       19.36851322941005
 O         -17.36340471153154      -13.69514029587978       18.14732692271040
 H         -18.46108893845252      -17.06002626767334       18.66156103042189
 H         -19.49197493434019      -16.81620277154279       16.00113236092946
 H         -18.92072224163363      -14.31715725326117       16.37849877700981
 H         -20.04385528709594      -15.04338282234096       17.52805318577850
 N         -17.44580449147764      -17.32613176410702       14.72659228086530
 C         -16.28439316747828      -17.49363868544718       13.87451218344430
 C         -15.90699483494581      -16.18822297831575       13.22202221953061
 C         -16.49149435239583      -18.59708819051173       12.83139521616913
 O         -16.44111904832108      -15.85024283629363       12.18673068521735
 C         -15.24264855970428      -18.98669077263777       12.11890425975337
 C         -14.35829856221397      -18.16064084284536       11.45414330488338
 N         -14.75341502877596      -20.25554065156485       11.97106517880945
 C         -13.60330462565306      -20.13140487936001       11.23012818635259
 N         -13.35979996628259      -18.88031034529230       10.91556576691735
 H         -18.14348939564068      -18.07485320782874       14.68632622734696
 H         -15.45711923962853      -17.79489830133665       14.53708652567273
 H         -16.91664896741763      -19.48129488179501       13.31431604234477
 H         -17.23235212064943      -18.25230033105676       12.10353621724428
 H         -15.16458360067254      -21.11534569480168       12.33288026418677
 H         -14.43511019697892      -17.08728383520865       11.37969200093602
 H         -12.96718162868585      -20.95599967908683       10.93309682328024
 N         -14.94555290167316      -15.43599860970682       13.84861209230994
 C         -14.36706551445227      -14.28525951581061       13.19331747767895
 C         -13.48289892300424      -14.74141930740858       12.06465034077385
 C         -13.60583110867103      -13.37189424550571       14.16063716144936
 O         -12.31338276263288      -14.95793047335103       12.23985172995329
 C         -14.49816822033211      -12.46199449003253       14.92700207065331
 C         -15.58524636761941      -12.78980382926650       15.71572485172426
 N         -14.41309754361557      -11.09699934582102       14.94382852678946
 C         -15.44635786906456      -10.66612787262318       15.73672203574340
 N         -16.15330099064171      -11.67099865136657       16.19864198511688
 H         -14.44756281078640      -15.78405885580024       14.66750521437373
 H         -15.20543007834415      -13.71380381822737       12.76641630211024
 H         -13.00358484951978      -13.97804783146669       14.84264109082727
 H         -12.89256869777868      -12.76997727867363       13.58957458817583
 H         -13.72530304767864      -10.52094188350748       14.45914742674975
 H         -15.95839352282247      -13.78617578810100       15.91676526979392
 H         -15.66458346077405       -9.62895688885132       15.95765527261209
 N         -14.10798829006250      -14.91773358827870       10.81468633704979
 C         -13.38512701922016      -15.28261129570795        9.68835076256902
 H         -15.14092707190270      -14.88881229721313       10.77853086182167
 H         -12.85814940388478      -16.18489701439223        9.89936982638272
86
 energy: -16.731958606244 gnorm: 0.000827769623 xtb: 6.6.1 (8d0f1dd)
 N         -21.00734627722797      -19.77104060904430       22.77192448997604
 C         -21.10822124906268      -18.70883700354154       21.72971328413346
 C         -19.90083473685758      -18.80300090171145       20.84521830368496
 C         -21.21218220953092      -17.31560260876065       22.34766995224767
 O         -18.79501319444999      -18.61909864640400       21.31296682900275
 C         -22.39541315264112      -17.15594511276594       23.23292631595887
 C         -23.72862465230065      -17.19276403946097       22.86528704128466
 N         -22.38047591850309      -16.97291253935372       24.58859088181070
 C         -23.69906241348172      -16.90304454044138       24.97003296761276
 N         -24.51330177579365      -17.03578235774004       23.94767307787911
 H         -21.85211062039414      -19.82293604704384       23.35687214176430
 H         -22.00693761780525      -18.89785383289932       21.12304713900396
 H         -20.30085592571649      -17.12207591266841       22.91913846432631
 H         -21.23679153654109      -16.55510271327050       21.56014045814187
 H         -21.55708451633127      -16.89293505947698       25.18498709640866
 H         -24.10406716550271      -17.32985231151467       21.86087092594959
 H         -24.03797172669803      -16.75985176772948       25.98802531204845
 H         -20.83827061774113      -20.68985879415732       22.32586122038875
 H         -20.20001856088569      -19.57499506496278       23.37496487660868
 N         -20.10313701590032      -19.13514227460190       19.52477687462481
 C         -18.98686418120422      -19.60871337961106       18.73216784416395
 C         -18.85295644253518      -18.75600879191142       17.49478432075915
 C         -19.13072088070868      -21.09695618999996       18.40918628267081
 O         -19.05308745252857      -19.18684309550953       16.37607105407834
 C         -19.37423789694611      -21.90297083018660       19.63599001160726
 C         -20.59939255487663      -22.21782559063086       20.19588220059477
 N         -18.43147547037818      -22.32597230567115       20.53104808173004
 C         -19.12649713544712      -22.87594257777794       21.58003792553485
 N         -20.42404298842746      -22.79992257267539       21.39497927306651
 H         -21.02603286778488      -19.39677100698863       19.17604023948450
 H         -18.08913012806546      -19.46500689574002       19.35203730125783
 H         -19.96157260826533      -21.22690647559795       17.70967376300360
 H         -18.23840437258770      -21.45901357136871       17.88895113433649
 H         -17.42116042144778      -22.20789889358406       20.45511903696892
 H         -21.56924608111992      -21.99882578717236       19.76993342959956
 H         -18.67429231031620      -23.29894861819342       22.46895635529030