      -----------------------------------------------------------      
     |                   =====================                   |     
     |                           x T B                           |     
     |                   =====================                   |     
     |                         S. Grimme                         |     
     |          Mulliken Center for Theoretical Chemistry        |     
     |                    University of Bonn                     |     
      -----------------------------------------------------------      

   * xtb version 6.6.1 (8d0f1dd) compiled by 'conda@1efc2f54142f' on 2023-08-01

   xtb is free software: you can redistribute it and/or modify it under
   the terms of the GNU Lesser General Public License as published by
   the Free Software Foundation, either version 3 of the License, or
   (at your option) any later version.
   
   xtb is distributed in the hope that it will be useful,
   but WITHOUT ANY WARRANTY; without even the implied warranty of
   MERCHANTABILITY or FITNESS FOR A PARTICULAR PURPOSE.  See the
   GNU Lesser General Public License for more details.
   
   Cite this work as:
   * C. Bannwarth, E. Caldeweyher, S. Ehlert, A. Hansen, P. Pracht,
     J. Seibert, S. Spicher, S. Grimme, WIREs Comput. Mol. Sci., 2020, 11,
     e01493. DOI: 10.1002/wcms.1493
   
   for GFN2-xTB:
   * C. Bannwarth, S. Ehlert and S. Grimme., J. Chem. Theory Comput., 2019,
     15, 1652-1671. DOI: 10.1021/acs.jctc.8b01176
   for GFN1-xTB:
   * S. Grimme, C. Bannwarth, P. Shushkov, J. Chem. Theory Comput., 2017,
     13, 1989-2009. DOI: 10.1021/acs.jctc.7b00118
   for GFN0-xTB:
   * P. Pracht, E. Caldeweyher, S. Ehlert, S. Grimme, ChemRxiv, 2019, preprint.
     DOI: 10.26434/chemrxiv.8326202.v1
   for GFN-FF:
   * S. Spicher and S. Grimme, Angew. Chem. Int. Ed., 2020, 59, 15665-15673.
     DOI: 10.1002/anie.202004239
   
   for ALPB and GBSA implicit solvation:
   * S. Ehlert, M. Stahn, S. Spicher, S. Grimme, J. Chem. Theory Comput.,
     2021, 17, 4250-4261. DOI: 10.1021/acs.jctc.1c00471
   
   for DFT-D4:
   * E. Caldeweyher, C. Bannwarth and S. Grimme, J. Chem. Phys., 2017,
     147, 034112. DOI: 10.1063/1.4993215
   * E. Caldeweyher, S. Ehlert, A. Hansen, H. Neugebauer, S. Spicher,
     C. Bannwarth and S. Grimme, J. Chem. Phys., 2019, 150, 154122.
     DOI: 10.1063/1.5090222
   * E. Caldeweyher, J.-M. Mewes, S. Ehlert and S. Grimme, Phys. Chem. Chem. Phys.
     2020, 22, 8499-8512. DOI: 10.1039/D0CP00502A
   
   for sTDA-xTB:
   * S. Grimme and C. Bannwarth, J. Chem. Phys., 2016, 145, 054103.
     DOI: 10.1063/1.4959605
   
   in the mass-spec context:
   * V. Asgeirsson, C. Bauer and S. Grimme, Chem. Sci., 2017, 8, 4879.
     DOI: 10.1039/c7sc00601b
   * J. Koopman and S. Grimme, ACS Omega 2019, 4, 12, 15120-15133.
     DOI: 10.1021/acsomega.9b02011
   
   for metadynamics refer to:
   * S. Grimme, J. Chem. Theory Comput., 2019, 155, 2847-2862
     DOI: 10.1021/acs.jctc.9b00143
   
   for SPH calculations refer to:
   * S. Spicher and S. Grimme, J. Chem. Theory Comput., 2021, 17, 1701-1714
     DOI: 10.1021/acs.jctc.0c01306
   
   with help from (in alphabetical order)
   P. Atkinson, C. Bannwarth, F. Bohle, G. Brandenburg, E. Caldeweyher
   M. Checinski, S. Dohm, S. Ehlert, S. Ehrlich, I. Gerasimov, C. Hölzer
   A. Katbashev, J. Koopman, C. Lavigne, S. Lehtola, F. März, M. Müller,
   F. Musil, H. Neugebauer, J. Pisarek, C. Plett, P. Pracht, F. Pultar,
   J. Seibert, P. Shushkov, S. Spicher, M. Stahn, M. Steiner, T. Strunk,
   J. Stückrath, T. Rose, and J. Unsleber
   
 * started run on 2025/05/27 at 09:37:51.032     

           -------------------------------------------------
          |                Calculation Setup                |
           -------------------------------------------------

          program call               : xtb substructure_48.pdb --gfnff --input xtb_settings.inp --opt vtight --alpb water --verbose
          coordinate file            : substructure_48.pdb
          xtbhome directory          : /home/dargen3
          path for xtb               : /home/dargen3
          xcontrol input file        : xtb_settings.inp
          omp threads                :                     1

$$$$$$$$$$$$$$$$$$$$$$$$$$$$$$$$$$$$$$$$$$$$$$$$$$$$$$$$$$$$$$$$$$$$$$$$
 CONSTRAINTS & SCANS: DEBUG SECTION
$$$$$$$$$$$$$$$$$$$$$$$$$$$$$$$$$$$$$$$$$$$$$$$$$$$$$$$$$$$$$$$$$$$$$$$$
   ID    Z sym.   atoms
    1    6  C     1, 4, 5, 11, 12, 18, 19, 25-27
    2    8  O     2, 6, 13, 20, 28, 29
    3    7  N     3, 10, 17, 24
    4    1  H     7-9, 14-16, 21-23, 30-34
> constrain
-> atoms: 1, 2, 3, 4, 5, 6, 7, 8, 9, 10, 11, 12, 13, 14, 15, 16, 18, 24, 25, 26, 27, 28, 29, 30, 31, 32, 33, 34
--> 1: 1
--> 2: 2
--> 3: 3
--> 4: 4
--> 5: 5
--> 6: 6
--> 7: 7
--> 8: 8
--> 9: 9
--> 10: 10
--> 11: 11
--> 12: 12
--> 13: 13
--> 14: 14
--> 15: 15
--> 16: 16
--> 17: 18
--> 18: 24
--> 19: 25
--> 20: 26
--> 21: 27
--> 22: 28
--> 23: 29
--> 24: 30
--> 25: 31
--> 26: 32
--> 27: 33
--> 28: 34
-> force constant=1.0
$$$$$$$$$$$$$$$$$$$$$$$$$$$$$$$$$$$$$$$$$$$$$$$$$$$$$$$$$$$$$$$$$$$$$$$$
           -------------------------------------------------
          |                   Constraints                   |
           -------------------------------------------------

 * 28 constrained atom positions
   positions refering to input geometry

     #   Z                                   position/Å      displ./Å
     1   6 C      3.1580003    -6.1020006    -7.5570007     0.0000000
     2   8 O      2.2500002    -5.4590005    -7.0710007     0.0000000
     3   7 N      4.2590004    -5.4290005    -8.0680007     0.0000000
     4   6 C      5.4280005    -5.9890006    -8.7440008     0.0000000
     5   6 C      5.4130005    -5.6770005   -10.2210009     0.0000000
     6   8 O      4.6370004    -6.2670006   -10.9400010     0.0000000
     7   1 H      4.2100004    -4.4150004    -8.1200008     0.0000000
     8   1 H      6.3350006    -5.6060005    -8.2820008     0.0000000
     9   1 H      5.4520005    -7.0780007    -8.6170008     0.0000000
    10   7 N      6.2810006    -4.7210004   -10.7100010     0.0000000
    11   6 C      6.1780006    -4.2520004   -12.0880011     0.0000000
    12   6 C      5.8100005    -2.7860003   -12.1140011     0.0000000
    13   8 O      4.8490004    -2.4380002   -11.4590011     0.0000000
    14   1 H      6.7880006    -4.0990004   -10.0790009     0.0000000
    15   1 H      7.1240007    -4.4370004   -12.6000012     0.0000000
    16   1 H      5.4000005    -4.8310004   -12.5750012     0.0000000
    18   6 C      7.7600007    -2.0220002   -13.5740013     0.0000000
    24   7 N      9.2540009    -0.8280001   -15.1060014     0.0000000
    25   6 C      9.7400009     0.3630000   -15.7630015     0.0000000
    26   6 C     10.8750010     0.0000000   -16.7120016     0.0000000
    27   6 C     10.1870009     1.4120001   -14.7580014     0.0000000
    28   8 O     11.5370011    -0.9890001   -16.4170015     0.0000000
    29   8 O     11.0370010     0.7430001   -17.6750016     0.0000000
    30   1 H      9.8640009    -1.6510002   -15.1760014     0.0000000
    31   1 H      8.9010008     0.7550001   -16.3610015     0.0000000
    32   1 H     11.0030010     1.0200001   -14.1480013     0.0000000
    33   1 H     10.5400010     2.3170002   -15.2570014     0.0000000
    34   1 H      9.3640009     1.6770002   -14.0890013     0.0000000

     applying 378 atom pairwise harmonic potentials
       applied force constant per pair:     0.0370370
     effective force constant per atom:     1.0000000
         constraining energy/grad norm:     0.0000000     0.0000000

     total constraint energy/grad norm:     0.0000000     0.0000000

          charge from pdb residues: 0

          entering GFN-FF setup routine... 34

          ==================== Thresholds ====================
          CN  :   150.00000
          rep :   500.00000
          disp:  2500.00000
          HB1 :   250.00000
          HB2 :   450.00000

          Pauling EN used:
          Z : 1  EN :  2.20
          Z : 6  EN :  2.55
          Z : 7  EN :  3.04
          Z : 8  EN :  3.44
          electric field strengths (au): 0.000

           ------------------------------------------------- 
          |           Force Field Initialization            |
           ------------------------------------------------- 

          distances ...
          ----------------------------------------
          generating topology and atomic info file ...
          pair mat ...
          computing topology distances matrix with Floyd-Warshall algo ...
          making topology EEQ charges ...
          #fragments for EEQ constrain from pdb file: 5
          ----------------------------------------
          generating topology and atomic info file ...
          pair mat ...
          computing topology distances matrix with Floyd-Warshall algo ...
          making topology EEQ charges ...
          #fragments for EEQ constrain from pdb file: 5
          rings ...
          # BATM   276
          # H in HB   14
          doing iterative Hueckel for 5 subsystem(s) ...
          iterative Hueckel run to get P ...
Hueckel system :  1 charge :   0 ndim/Nel :    3    3   eps(HOMO/LUMO)   -0.953659   -0.953659
Hueckel system :  2 charge :   0 ndim/Nel :    3    4   eps(HOMO/LUMO)   -0.912485   -0.912485
Hueckel system :  3 charge :   0 ndim/Nel :    3    4   eps(HOMO/LUMO)   -0.913765   -0.913765
Hueckel system :  4 charge :   0 ndim/Nel :    3    4   eps(HOMO/LUMO)   -0.921494   -0.921494
Hueckel system :  5 charge :   0 ndim/Nel :    3    3   eps(HOMO/LUMO)   -0.818293   -0.818293

  atom   neighbors  erfCN metchar sp-hybrid imet pi  qest     coordinates
    1   C      2    1.93   0.00        -2    0    1   0.120    5.967755  -11.531109  -14.280660
    2   O      1    0.98   0.00         2    0    1  -0.120    4.251884  -10.316015  -13.362253
    3   N      3    2.79   0.00        -3    0    1  -0.166    8.048344  -10.259323  -15.246310
    4   C      4    3.49   0.00         3    0    0   0.005   10.257433  -11.317570  -16.523765
    5   C      3    2.79   0.00         2    0    1   0.174   10.229088  -10.727975  -19.314891
    6   O      1    0.98   0.00         2    0    1  -0.352    8.762660  -11.842914  -20.673604
    7   H      1    0.98   0.00         0    0    0   0.153    7.955747   -8.343141  -15.344576
    8   H      1    0.97   0.00         0    0    0   0.093   11.971415  -10.593805  -15.650712
    9   H      1    0.97   0.00         0    0    0   0.093   10.302787  -13.375482  -16.283770
   10   N      3    2.79   0.00        -3    0    1  -0.166   11.869370   -8.921397  -20.238967
   11   C      4    3.49   0.00         3    0    0   0.004   11.674728   -8.035115  -22.843009
   12   C      3    2.79   0.00         2    0    1   0.172   10.979309   -5.264777  -22.892142
   13   O      1    0.98   0.00         2    0    1  -0.353    9.163282   -4.607152  -21.654372
   14   H      1    0.98   0.00         0    0    0   0.155   12.827461   -7.745987  -19.046550
   15   H      1    0.97   0.00         0    0    0   0.094   13.462409   -8.384715  -23.810549
   16   H      1    0.97   0.00         0    0    0   0.094   10.204521   -9.129267  -23.763306
   17   N      3    2.79   0.00        -3    0    1  -0.163   12.296448   -3.482765  -24.290540
   18   C      4    3.49   0.00         3    0    0   0.004   14.664275   -3.821026  -25.651142
   19   C      3    2.80   0.00         2    0    1   0.168   15.442842   -1.458869  -26.951274
   20   O      1    0.98   0.00         2    0    1  -0.352   14.297668    0.489439  -26.575218
   21   H      1    0.98   0.00         0    0    0   0.153   11.738979   -1.634613  -24.213061
   22   H      1    0.97   0.00         0    0    0   0.095   16.128812   -4.423849  -24.313216
   23   H      1    0.97   0.01         0    0    0   0.095   14.416721   -5.347925  -27.047650
   24   N      3    2.80   0.00        -3    0    1  -0.147   17.487526   -1.564693  -28.546203
   25   C      4    3.49   0.00         3    0    0   0.035   18.405932    0.685971  -29.787753
   26   C      3    2.79   0.00         2    0    1   0.267   20.550772    0.000000  -31.581103
   27   C      4    3.49   0.00         3    0    0  -0.062   19.250640    2.668293  -27.888578
   28   O      1    0.98   0.00         2    0    1  -0.330   21.801770   -1.868939  -31.023634
   29   O      1    0.98   0.00         2    0    1  -0.330   20.856907    1.404067  -33.400909
   30   H      1    0.98   0.00         0    0    0   0.159   18.640258   -3.119938  -28.678484
   31   H      1    0.97   0.01         0    0    0   0.103   16.820452    1.426743  -30.917809
   32   H      1    0.97   0.00         0    0    0   0.102   20.792657    1.927521  -26.735845
   33   H      1    0.97   0.00         0    0    0   0.102   19.917713    4.378495  -28.831551
   34   H      1    0.97   0.00         0    0    0   0.102   17.695395    3.169071  -26.624351

molecular fragment  # atoms  topo charge
       1             2             0.000
       2             7             0.000
       3             7             0.000
       4             7             0.000
       5            11            -0.000


          #atoms :   34
          #bonds :   33

 bond atoms        type  in ring    R      R0    piBO    fqq  kbond(tot)  alp
 O  C     2    1      2    0     1.214   0.995   0.799   1.047  -0.252   0.584
 N  C     3    1      2    0     1.388   1.214   0.504   1.047  -0.235   0.524
 C  N     4    3      1    0     1.462   1.325 -99.000   1.033  -0.151   0.496
 C  C     5    4      1    0     1.510   1.332 -99.000   1.013  -0.162   0.475
 O  C     6    5      2    0     1.211   1.031   0.856   1.047  -0.262   0.584
 H  N     7    3      1    0     1.016   0.890 -99.000   1.047  -0.176   0.551
 H  C     8    4      1    0     1.088   0.976 -99.000   1.018  -0.164   0.482
 H  C     9    4      1    0     1.097   0.976 -99.000   1.018  -0.164   0.482
 N  C    10    5      2    0     1.381   1.263   0.503   1.047  -0.234   0.524
 C  N    11   10      1    0     1.459   1.326 -99.000   1.032  -0.151   0.496
 C  C    12   11      1    0     1.512   1.332 -99.000   1.014  -0.162   0.475
 O  C    13   12      2    0     1.214   1.031   0.857   1.047  -0.262   0.584
 H  N    14   10      1    0     1.021   0.890 -99.000   1.047  -0.176   0.551
 H  C    15   11      1    0     1.091   0.976 -99.000   1.018  -0.164   0.482
 H  C    16   11      1    0     1.085   0.977 -99.000   1.018  -0.164   0.482
 N  C    17   12      2    0     1.387   1.263   0.503   1.047  -0.234   0.524
 C  N    18   17      1    0     1.456   1.326 -99.000   1.030  -0.151   0.496
 C  C    19   18      1    0     1.485   1.332 -99.000   1.016  -0.163   0.475
 O  C    20   19      2    0     1.212   1.031   0.857   1.047  -0.262   0.584
 H  N    21   17      1    0     1.022   0.890 -99.000   1.047  -0.176   0.551
 H  C    22   18      1    0     1.097   0.976 -99.000   1.019  -0.164   0.482
 H  C    23   18      1    0     1.103   0.976 -99.000   1.019  -0.164   0.482
 N  C    24   19      2    0     1.373   1.264   0.501   1.047  -0.234   0.524
 C  N    25   24      1    0     1.444   1.326 -99.000   1.047  -0.153   0.496
 C  C    26   25      1    0     1.523   1.332 -99.000   1.000  -0.160   0.475
 C  C    27   25      1    0     1.520   1.371 -99.000   1.043  -0.155   0.468
 O  C    28   26      2    0     1.226   1.058   0.703   1.047  -0.236   0.584
 O  C    29   26      2    0     1.227   1.058   0.703   1.047  -0.236   0.584
 H  N    30   24      1    0     1.027   0.890 -99.000   1.047  -0.176   0.551
 H  C    31   25      1    0     1.102   0.976 -99.000   1.001  -0.161   0.482
 H  C    32   27      1    0     1.092   0.976 -99.000   1.047  -0.169   0.482
 H  C    33   27      1    0     1.092   0.976 -99.000   1.047  -0.169   0.482
 H  C    34   27      1    0     1.093   0.976 -99.000   1.047  -0.169   0.482
          #angl  :   55

 angle atoms        phi0    phi      FC  pi rings
    1    3    2   145.000 118.937   0.082 F   0
    3    4    1   115.000 128.232   0.411 F   0
    3    7    1   115.000 117.665   0.335 F   0
    3    7    4   104.000 113.391   0.182 F   0
    4    5    3   109.500 111.426   0.307 F   0
    4    8    3   109.500 109.606   0.253 F   0
    4    8    5   109.500 110.556   0.251 F   0
    4    9    3   109.500 110.142   0.253 F   0
    4    9    5   109.500 108.587   0.251 F   0
    4    9    8   108.600 106.395   0.209 F   0
    5    6    4   120.000 119.107   0.178 F   0
    5   10    4   120.000 118.904   0.243 F   0
    5   10    6   120.000 121.989   0.177 F   0
   10   11    5   115.000 120.836   0.409 F   0
   10   14    5   115.000 121.009   0.333 F   0
   10   14   11   104.000 115.020   0.182 F   0
   11   12   10   109.500 110.188   0.307 F   0
   11   15   10   109.500 109.106   0.253 F   0
   11   15   12   109.500 111.549   0.251 F   0
   11   16   10   109.500 107.632   0.253 F   0
   11   16   12   109.500 109.583   0.251 F   0
   11   16   15   108.600 108.688   0.209 F   0
   12   13   11   120.000 117.480   0.178 F   0
   12   17   11   120.000 123.116   0.243 F   0
   12   17   13   120.000 119.402   0.177 F   0
   17   18   12   115.000 127.793   0.410 F   0
   17   21   12   115.000 118.956   0.334 F   0
   17   21   18   104.000 112.688   0.182 F   0
   18   19   17   109.500 111.365   0.307 F   0
   18   22   17   109.500 108.935   0.253 F   0
   18   22   19   109.500 110.348   0.251 F   0
   18   23   17   109.500 108.614   0.253 F   0
   18   23   19   109.500 109.828   0.251 F   0
   18   23   22   108.600 107.657   0.209 F   0
   19   20   18   120.000 120.071   0.178 F   0
   19   24   18   120.000 117.965   0.243 F   0
   19   24   20   120.000 121.962   0.177 F   0
   24   25   19   115.000 120.730   0.409 F   0
   24   30   19   115.000 122.861   0.335 F   0
   24   30   25   104.000 115.467   0.182 F   0
   25   26   24   109.500 109.729   0.307 F   0
   25   27   24   109.500 111.547   0.305 F   0
   25   27   26   109.500 110.932   0.305 F   0
   25   31   24   109.500 106.492   0.253 F   0
   25   31   26   109.500 108.292   0.253 F   0
   25   31   27   109.500 109.700   0.251 F   0
   26   28   25   120.000 116.397   0.176 F   0
   26   29   25   120.000 116.295   0.176 F   0
   26   29   28   122.000 127.297   0.252 F   0
   27   32   25   109.500 109.968   0.250 F   0
   27   33   25   109.500 111.399   0.250 F   0
   27   33   32   108.600 108.137   0.207 F   0
   27   34   25   109.500 110.520   0.250 F   0
   27   34   32   108.600 107.929   0.207 F   0
   27   34   33   108.600 108.789   0.207 F   0
 torsion atoms        nrot   rings    phi0    phi      FC
    3    1    4    2   2      0     180.000 177.110   0.764
    3    1    7    2   2      0     180.000   7.479   1.134
    4    3    5    1   3      0     180.000 108.043   0.024
    4    3    5    7   3      0     180.000  61.955   0.032
    4    3    8    1   3      0     180.000 129.261   0.034
    4    3    8    7   3      0     180.000  60.741   0.045
    4    3    9    1   3      0     180.000  12.530   0.034
    4    3    9    7   3      0     180.000 177.472   0.045
    5    4    6    3   3      0     180.000  73.653   0.066
    5    4    6    8   3      0     180.000 164.198   0.115
    5    4    6    9   3      0     180.000  47.829   0.115
    5    4   10    3   3      0     180.000 106.003   0.041
    5    4   10    8   3      0     180.000  16.146   0.072
    5    4   10    9   3      0     180.000 132.515   0.072
   10    5   11    4   2      0     180.000 171.411   0.612
   10    5   11    6   2      0     180.000   8.236   0.829
   10    5   14    4   2      0     180.000  12.420   0.907
   10    5   14    6   2      0     180.000 167.227   1.230
   11   10   12    5   3      0     180.000 115.552   0.022
   11   10   12   14   3      0     180.000  44.626   0.032
   11   10   15    5   3      0     180.000 121.661   0.032
   11   10   15   14   3      0     180.000  78.161   0.045
   11   10   16    5   3      0     180.000   3.891   0.032
   11   10   16   14   3      0     180.000 164.069   0.045
   12   11   13   10   3      0     180.000  51.289   0.066
   12   11   13   15   3      0     180.000 172.631   0.115
   12   11   13   16   3      0     180.000  66.962   0.115
   12   11   17   10   3      0     180.000 129.357   0.041
   12   11   17   15   3      0     180.000   8.015   0.072
   12   11   17   16   3      0     180.000 112.392   0.072
   17   12   18   11   2      0     180.000   8.283   0.607
   17   12   18   13   2      0     180.000 172.375   0.823
   17   12   21   11   2      0     180.000 179.001   0.901
   17   12   21   13   2      0     180.000   1.657   1.221
   18   17   19   12   3      0     180.000 179.150   0.022
   18   17   19   21   3      0     180.000   9.649   0.032
   18   17   22   12   3      0     180.000  58.916   0.032
   18   17   22   21   3      0     180.000 112.285   0.045
   18   17   23   12   3      0     180.000  58.080   0.032
   18   17   23   21   3      0     180.000 130.719   0.045
   19   18   20   17   3      0     180.000   7.869   0.065
   19   18   20   22   3      0     180.000 113.243   0.114
   19   18   20   23   3      0     180.000 128.226   0.114
   19   18   24   17   3      0     180.000 172.739   0.041
   19   18   24   22   3      0     180.000  66.149   0.072
   19   18   24   23   3      0     180.000  52.381   0.072
   24   19   25   18   2      0     180.000 177.433   0.587
   24   19   25   20   2      0     180.000   1.947   0.795
   24   19   30   18   2      0     180.000   9.046   0.871
   24   19   30   20   2      0     180.000 170.335   1.180
   25   24   26   19   3      0     180.000 175.890   0.023
   25   24   26   30   3      0     180.000  14.904   0.032
   25   24   27   19   3      0     180.000  60.767   0.022
   25   24   27   30   3      0     180.000 108.439   0.031
   25   24   31   19   3      0     180.000  58.895   0.032
   25   24   31   30   3      0     180.000 131.899   0.046
   26   25   28   24   3      0     180.000  28.218   0.054
   26   25   28   27   3      0     180.000  95.486   0.064
   26   25   28   31   3      0     180.000 144.079   0.094
   26   25   29   24   3      0     180.000 152.883   0.054
   26   25   29   27   3      0     180.000  83.412   0.064
   26   25   29   31   3      0     180.000  37.023   0.094
   27   25   32   24   3      0     180.000  60.973   0.120
   27   25   32   26   3      0     180.000  61.684   0.148
   27   25   32   31   3      0     180.000 178.720   0.210
   27   25   33   24   3      0     180.000 179.152   0.120
   27   25   33   26   3      0     180.000  58.191   0.148
   27   25   33   31   3      0     180.000  61.405   0.210
   27   25   34   24   3      0     180.000  58.085   0.120
   27   25   34   26   3      0     180.000 179.258   0.148
   27   25   34   31   3      0     180.000  59.662   0.210
 out-of-plane atoms          phi0    phi      FC
    3    7    1    4          0.000   8.128   0.134
    5    6   10    4          0.000   0.310  23.864
   10   14    5   11          0.000  17.929   0.134
   12   13   17   11          0.000  -0.551  23.795
   17   21   12   18          0.000  -7.323   0.146
   19   20   24   18          0.000   0.547  23.568
   24   30   19   25          0.000   9.964   0.208
   26   28   29   25          0.000  -1.112  27.634
          #tors  :   79
          #nmol  :   5
          #optfrag :   5

 GFN-FF setup done.

           ------------------------------------------------- 
          |                   G F N - F F                   |
          |          A general generic force-field          |
          |                  Version 1.0.3                  | 
           ------------------------------------------------- 
      * Solvation model:               ALPB
        Solvent                        water
        Parameter file                 internal GFN-FF/ALPB
        Dielectric constant                8.0200E+01
        Reference state                gsolv [1 M gas/solution]
        Free energy shift                  3.6494E-04 Eh       2.2900E-01 kcal/mol
        Temperature                        2.9815E+02 K
        Density                            1.0000E+00 kg/L
        Solvent mass                       1.8000E+01 g/mol
        Interaction kernel             P16
        Born radius scaling (c1)           1.5056E+00
        Born radii integrator          GBOBC
        Born offset                        0.0000E+00 a0       0.0000E+00 AA
        H-bond correction              true
        Ion screening                  false
        Surface tension                    1.0000E-05 Eh       1.5569E+01 dyn/cm
        Grid points                               230 per atom
          Number of HB bonds (bound hydrogen)     270
          Number of HB bonds (unbound hydrogen)   28
          Number of XB bonds                      0

 E+G (total)                   0 d,  0 h,  0 min,  0.001 sec
 distance/D3 list               ...        0 min,  0.000 sec (  0.285%)
 non bonded repulsion           ...        0 min,  0.000 sec (  2.661%)
 dCN                            ...        0 min,  0.000 sec (  2.769%)
 EEQ energy and q               ...        0 min,  0.000 sec (  4.389%)
 D3                             ...        0 min,  0.000 sec (  8.834%)
 EEQ gradient                   ...        0 min,  0.000 sec (  4.327%)
 bonds                          ...        0 min,  0.000 sec (  0.935%)
 bend and torsion               ...        0 min,  0.000 sec (  3.857%)
 bonded ATM                     ...        0 min,  0.000 sec (  1.616%)
 HB/XB (incl list setup)        ...        0 min,  0.000 sec (  7.706%)
 GBSA                           ...        0 min,  0.000 sec ( 64.801%)

         :::::::::::::::::::::::::::::::::::::::::::::::::::::
         ::                     SUMMARY                     ::
         :::::::::::::::::::::::::::::::::::::::::::::::::::::
         :: total energy              -5.982458336665 Eh    ::
         :: total w/o Gsolv           -5.940852647816 Eh    ::
         :: total w/o Gsasa/hb        -5.981167842201 Eh    ::
         :: gradient norm              0.063100052148 Eh/a0 ::
         ::.................................................::
         :: bond energy               -5.966345420948 Eh    ::
         :: angle energy               0.026035361698 Eh    ::
         :: torsion energy             0.007090607350 Eh    ::
         :: repulsion energy           0.389116985974 Eh    ::
         :: electrostat energy        -0.364921724024 Eh    ::
         :: dispersion energy         -0.022450364493 Eh    ::
         :: HB energy                 -0.001376542371 Eh    ::
         :: XB energy                  0.000000000000 Eh    ::
         :: bonded atm energy         -0.008001551001 Eh    ::
         :: external energy            0.000000000000 Eh    ::
         :: -> Gsolv                  -0.041605688848 Eh    ::
         ::    -> Gborn               -0.040315194385 Eh    ::
         ::    -> Gsasa                0.013203559190 Eh    ::
         ::    -> Ghb                 -0.014858992909 Eh    ::
         ::    -> Gshift               0.000364939255 Eh    ::
         :: add. restraining           0.000000000000 Eh    ::
         :: total charge              -0.000000000000 e     ::
         ::.................................................::
         :: atomisation energy         0.000000000000 Eh    ::
         :::::::::::::::::::::::::::::::::::::::::::::::::::::

      ----------------------------------------------------------- 
     |                   =====================                   |
     |                        A N C O P T                        |
     |                   =====================                   |
     |               Approximate Normal Coordinate               |
     |                Rational Function Optimizer                |
      ----------------------------------------------------------- 

          ...................................................
          :                      SETUP                      :
          :.................................................:
          :   optimization level         verytight          :
          :   max. optcycles                    10          :
          :   ANC micro-cycles                  10          :
          :   degrees of freedom                96          :
          :.................................................:
          :   RF solver                   davidson          :
          :   write xtbopt.log                true          :
          :   linear?                        false          :
          :   energy convergence         0.1000000E-06 Eh   :
          :   grad. convergence          0.2000000E-03 Eh/α :
          :   maxmium RF displ.          1.0000000          :
          :   Hlow (freq-cutoff)         0.1000000E-01      :
          :   Hmax (freq-cutoff)         5.0000000          :
          :   S6 in model hess.         20.0000000          :
          ...................................................

generating ANC from model Hessian ...
Using GFN-FF Lindh-Hessian
 Shifting diagonal of input Hessian by    0.0000000000000000     
 Lowest  eigenvalues of input Hessian
    0.000000    0.000000    0.000000    0.000000    0.000000    0.000000
    0.016032    0.022296    0.023978    0.034725    0.049691    0.081722
    0.094667    0.101830    0.112798    0.118987    0.139346    0.150679
 Highest eigenvalues
    3.291779    3.813898    3.847791    3.866402    4.125805    4.415219


........................................................................
.............................. CYCLE    1 ..............................
........................................................................
     iter. time                 ...        0 min,  0.001 sec
 * total energy  :    -5.9824583 Eh     change        0.0000000E+00 Eh
   gradient norm :     0.0631000 Eh/α   predicted     0.0000000E+00 (    NaN%)
   displ. norm   :     0.0525982 α      lambda       -0.2079284E-02
   maximum displ.:     0.0199548 α      in ANC's #13, #21, #32, ...

........................................................................
.............................. CYCLE    2 ..............................
........................................................................
     iter. time                 ...        0 min,  0.001 sec
 * total energy  :    -5.9839368 Eh     change       -0.1478513E-02 Eh
   gradient norm :     0.0278142 Eh/α   predicted    -0.1042528E-02 ( -29.49%)
   displ. norm   :     0.0472603 α      lambda       -0.9817228E-03
   maximum displ.:     0.0256660 α      in ANC's #32, #21, #30, ...

........................................................................
.............................. CYCLE    3 ..............................
........................................................................
     iter. time                 ...        0 min,  0.001 sec
 * total energy  :    -5.9845360 Eh     change       -0.5991805E-03 Eh
   gradient norm :     0.0113244 Eh/α   predicted    -0.4919867E-03 ( -17.89%)
   displ. norm   :     0.0290309 α      lambda       -0.2094208E-03
   maximum displ.:     0.0161414 α      in ANC's #32, #30, #21, ...

........................................................................
.............................. CYCLE    4 ..............................
........................................................................
     iter. time                 ...        0 min,  0.001 sec
 * total energy  :    -5.9846869 Eh     change       -0.1508725E-03 Eh
   gradient norm :     0.0090091 Eh/α   predicted    -0.1048039E-03 ( -30.53%)
   displ. norm   :     0.0302575 α      lambda       -0.1284722E-03
   maximum displ.:     0.0145111 α      in ANC's #32, #30, #21, ...

........................................................................
.............................. CYCLE    5 ..............................
........................................................................
     iter. time                 ...        0 min,  0.000 sec
 * total energy  :    -5.9847637 Eh     change       -0.7682185E-04 Eh
   gradient norm :     0.0041704 Eh/α   predicted    -0.6433560E-04 ( -16.25%)
   displ. norm   :     0.0088533 α      lambda       -0.1726093E-04
   maximum displ.:     0.0033621 α      in ANC's #21, #30, #32, ...

........................................................................
.............................. CYCLE    6 ..............................
........................................................................
     iter. time                 ...        0 min,  0.000 sec
 * total energy  :    -5.9847752 Eh     change       -0.1151773E-04 Eh
   gradient norm :     0.0018530 Eh/α   predicted    -0.8652949E-05 ( -24.87%)
   displ. norm   :     0.0077135 α      lambda       -0.6196404E-05
   maximum displ.:     0.0031054 α      in ANC's #21, #43, #4, ...

........................................................................
.............................. CYCLE    7 ..............................
........................................................................
     iter. time                 ...        0 min,  0.001 sec
 * total energy  :    -5.9847795 Eh     change       -0.4246524E-05 Eh
   gradient norm :     0.0012842 Eh/α   predicted    -0.3110849E-05 ( -26.74%)
   displ. norm   :     0.0076381 α      lambda        0.7907141E-05
   maximum displ.:     0.0030751 α      in ANC's #21, #43, #4, ...

........................................................................
.............................. CYCLE    8 ..............................
........................................................................
     iter. time                 ...        0 min,  0.000 sec
 * total energy  :    -5.9847736 Eh     change        0.5937875E-05 Eh
   gradient norm :     0.0033290 Eh/α   predicted     0.3952948E-05 ( -33.43%)
   displ. norm   :     0.0054531 α      lambda       -0.8773887E-05
   maximum displ.:     0.0021987 α      in ANC's #21, #43, #26, ...

........................................................................
.............................. CYCLE    9 ..............................
........................................................................
     iter. time                 ...        0 min,  0.000 sec
 * total energy  :    -5.9847796 Eh     change       -0.6016998E-05 Eh
   gradient norm :     0.0012649 Eh/α   predicted    -0.4462110E-05 ( -25.84%)
   displ. norm   :     0.0041221 α      lambda       -0.1665247E-05
   maximum displ.:     0.0016408 α      in ANC's #21, #26, #43, ...

........................................................................
.............................. CYCLE   10 ..............................
........................................................................
     iter. time                 ...        0 min,  0.000 sec
 * total energy  :    -5.9847803 Eh     change       -0.7253842E-06 Eh
   gradient norm :     0.0005123 Eh/α   predicted    -0.8786423E-06 (  21.13%)
   displ. norm   :     0.0032016 α      lambda        0.2584571E-05
   maximum displ.:     0.0011400 α      in ANC's #32, #37, #43, ...

   *** FAILED TO CONVERGE GEOMETRY OPTIMIZATION IN 10 ITERATIONS ***


 ANCopt (total)                0 d,  0 h,  0 min,  0.007 sec
 optimizer setup                ...        0 min,  0.000 sec (  0.903%)
 model hessian                  ...        0 min,  0.000 sec (  3.477%)
 ANC generation                 ...        0 min,  0.001 sec (  9.572%)
 coordinate transformation      ...        0 min,  0.000 sec (  0.418%)
 single point calculation       ...        0 min,  0.005 sec ( 73.979%)
 optimization log               ...        0 min,  0.000 sec (  5.939%)
 hessian update                 ...        0 min,  0.000 sec (  0.654%)
 rational function              ...        0 min,  0.000 sec (  2.857%)

================
 final structure:
================
ATOM      1  C   GLY A  14       3.190  -6.072  -7.523  1.00  0.00           C  
ATOM      2  O   GLY A  14       2.228  -5.488  -7.099  1.00  0.00           O  
ATOM      3  N   GLY A  15       4.256  -5.427  -8.066  1.00  0.00           N  
ATOM      4  CA  GLY A  15       5.425  -5.995  -8.750  1.00  0.00           C  
ATOM      5  C   GLY A  15       5.413  -5.677 -10.220  1.00  0.00           C  
ATOM      6  O   GLY A  15       4.635  -6.265 -10.941  1.00  0.00           O  
ATOM      7  H   GLY A  15       4.210  -4.412  -8.120  1.00  0.00           H  
ATOM      8  HA2 GLY A  15       6.335  -5.607  -8.283  1.00  0.00           H  
ATOM      9  HA3 GLY A  15       5.446  -7.079  -8.620  1.00  0.00           H  
ATOM     10  N   GLY A  16       6.281  -4.721 -10.710  1.00  0.00           N  
ATOM     11  CA  GLY A  16       6.180  -4.245 -12.082  1.00  0.00           C  
ATOM     12  C   GLY A  16       5.810  -2.785 -12.114  1.00  0.00           C  
ATOM     13  O   GLY A  16       4.849  -2.437 -11.458  1.00  0.00           O  
ATOM     14  H   GLY A  16       6.789  -4.100 -10.079  1.00  0.00           H  
ATOM     15  HA2 GLY A  16       7.123  -4.438 -12.601  1.00  0.00           H  
ATOM     16  HA3 GLY A  16       5.399  -4.831 -12.575  1.00  0.00           H  
ATOM     17  N   GLY A  17       6.507  -1.843 -12.853  1.00  0.00           N  
ATOM     18  CA  GLY A  17       7.762  -2.031 -13.577  1.00  0.00           C  
ATOM     19  C   GLY A  17       8.172  -0.772 -14.262  1.00  0.00           C  
ATOM     20  O   GLY A  17       7.566   0.259 -14.063  1.00  0.00           O  
ATOM     21  H   GLY A  17       6.212  -0.865 -12.812  1.00  0.00           H  
ATOM     22  HA2 GLY A  17       8.535  -2.342 -12.867  1.00  0.00           H  
ATOM     23  HA3 GLY A  17       7.628  -2.830 -14.313  1.00  0.00           H  
ATOM     24  N   ALA A  18       9.253  -0.828 -15.106  1.00  0.00           N  
ATOM     25  CA  ALA A  18       9.740   0.365 -15.762  1.00  0.00           C  
ATOM     26  C   ALA A  18      10.875   0.000 -16.712  1.00  0.00           C  
ATOM     27  CB  ALA A  18      10.188   1.412 -14.758  1.00  0.00           C  
ATOM     28  O   ALA A  18      11.537  -0.989 -16.418  1.00  0.00           O  
ATOM     29  OXT ALA A  18      11.036   0.743 -17.675  1.00  0.00           O  
ATOM     30  H   ALA A  18       9.863  -1.651 -15.177  1.00  0.00           H  
ATOM     31  HA  ALA A  18       8.901   0.755 -16.361  1.00  0.00           H  
ATOM     32  HB1 ALA A  18      11.003   1.020 -14.148  1.00  0.00           H  
ATOM     33  HB2 ALA A  18      10.540   2.317 -15.257  1.00  0.00           H  
ATOM     34  HB3 ALA A  18       9.365   1.677 -14.089  1.00  0.00           H  
END

 Bond Distances (Angstroems)
 ---------------------------
C1-O2=1.2019         C1-N3=1.3593         O2-C1=1.2019         N3-C1=1.3593         N3-C4=1.4685         N3-H7=1.0180         
C4-N3=1.4685         C4-C5=1.5050         C4-H8=1.0941         C4-H9=1.0924         C5-C4=1.5050         C5-O6=1.2126         
C5-N10=1.3807        O6-C5=1.2126         H7-N3=1.0180         H8-C4=1.0941         H9-C4=1.0924         N10-C5=1.3807        
N10-C11=1.4551       N10-H14=1.0213       C11-N10=1.4551       C11-C12=1.5066       C11-H15=1.0932       C11-H16=1.0936       
C12-C11=1.5066       C12-O13=1.2140       C12-N17=1.3861       O13-C12=1.2140       H14-N10=1.0213       H15-C11=1.0932       
H16-C11=1.0936       N17-C12=1.3861       N17-C18=1.4608       N17-H21=1.0226       C18-N17=1.4608       C18-C19=1.4910       
C18-H22=1.0944       C18-H23=1.0942       C19-C18=1.4910       C19-O20=1.2120       C19-N24=1.3729       O20-C19=1.2120       
H21-N17=1.0226       H22-C18=1.0944       H23-C18=1.0942       N24-C19=1.3729       N24-C25=1.4459       N24-H30=1.0270       
C25-N24=1.4459       C25-C26=1.5240       C25-C27=1.5179       C25-H31=1.1024       C26-C25=1.5240       C26-O28=1.2267       
C26-O29=1.2271       C27-C25=1.5179       C27-H32=1.0912       C27-H33=1.0922       C27-H34=1.0933       O28-C26=1.2267       
O29-C26=1.2271       H30-N24=1.0270       H31-C25=1.1024       H32-C27=1.0912       H33-C27=1.0922       H34-C27=1.0933       
 C  H  Rav=1.0941 sigma=0.0029  Rmin=1.0912  Rmax=1.1024    10
 C  C  Rav=1.5089 sigma=0.0114  Rmin=1.4910  Rmax=1.5240     5
 N  H  Rav=1.0222 sigma=0.0032  Rmin=1.0180  Rmax=1.0270     4
 N  C  Rav=1.4162 sigma=0.0424  Rmin=1.3593  Rmax=1.4685     8
 O  C  Rav=1.2157 sigma=0.0088  Rmin=1.2019  Rmax=1.2271     6

 selected bond angles (degree)
 --------------------
N3-C1-O2=122.51                C4-N3-C1=128.83                H7-N3-C1=117.35                H7-N3-C4=113.37                
C5-C4-N3=111.51                H8-C4-N3=109.10                H8-C4-C5=110.41                H9-C4-N3=110.13                
H9-C4-C5=109.04                H9-C4-H8=106.54                O6-C5-C4=118.88                N10-C5-C4=119.21               
N10-C5-O6=121.90               C11-N10-C5=121.13              H14-N10-C5=120.95              H14-N10-C11=114.72             

 selected dihedral angles (degree)
 ---------------------------------
C4-N3-C1-O2=187.25            H7-N3-C1-O2=358.98            C5-C4-N3-C1=110.59            C5-C4-N3-H7=298.59            
H8-C4-N3-C1=232.81            H8-C4-N3-H7= 60.80            H9-C4-N3-C1=349.41            H9-C4-N3-H7=177.40            
O6-C5-C4-N3=285.94            O6-C5-C4-H8=164.48            O6-C5-C4-H9= 47.76            N10-C5-C4-N3=105.68           
N10-C5-C4-H8=344.22           N10-C5-C4-H9=227.50           C11-N10-C5-C4=188.71          C11-N10-C5-O6=  8.44          
H14-N10-C5-C4=347.44          H14-N10-C5-O6=167.18          
           -------------------------------------------------
          |                Final Singlepoint                |
           -------------------------------------------------
         :::::::::::::::::::::::::::::::::::::::::::::::::::::
         ::                     SUMMARY                     ::
         :::::::::::::::::::::::::::::::::::::::::::::::::::::
         :: total energy              -5.984778541331 Eh    ::
         :: total w/o Gsolv           -5.943064642485 Eh    ::
         :: total w/o Gsasa/hb        -5.983498050587 Eh    ::
         :: gradient norm              0.001529042943 Eh/a0 ::
         ::.................................................::
         :: bond energy               -5.972130834593 Eh    ::
         :: angle energy               0.025517238325 Eh    ::
         :: torsion energy             0.007079374302 Eh    ::
         :: repulsion energy           0.392011974875 Eh    ::
         :: electrostat energy        -0.364920549236 Eh    ::
         :: dispersion energy         -0.022451471824 Eh    ::
         :: HB energy                 -0.001369052429 Eh    ::
         :: XB energy                  0.000000000000 Eh    ::
         :: bonded atm energy         -0.007942787958 Eh    ::
         :: external energy            0.000000000000 Eh    ::
         :: -> Gsolv                  -0.041713898846 Eh    ::
         ::    -> Gborn               -0.040433408102 Eh    ::
         ::    -> Gsasa                0.013262755418 Eh    ::
         ::    -> Ghb                 -0.014908185417 Eh    ::
         ::    -> Gshift               0.000364939255 Eh    ::
         :: add. restraining           0.001141466054 Eh    ::
         :: total charge               0.000000000000 e     ::
         ::.................................................::
         :: atomisation energy         0.000000000000 Eh    ::
         :::::::::::::::::::::::::::::::::::::::::::::::::::::

           -------------------------------------------------
          |                Property Printout                |
           -------------------------------------------------
           -------------------------------------------------
          |                Geometry Summary                 |
           -------------------------------------------------

      molecular mass/u    :      286.2417719
   center of mass at/Å    :        7.0569694      -2.6163432     -12.5216148
  moments of inertia/u·Å² :        0.4375942E+03   0.6354095E+04   0.6567727E+04
rotational constants/cm⁻¹ :        0.3852344E-01   0.2653034E-02   0.2566738E-02

 * 28 selected distances

     #   Z          #   Z                                           value/Å
     1   6  C       3   7  N                                      1.3592889
     3   7  N       4   6  C                                      1.4684732
     5   6  C       6   8  O                                      1.2125861
     3   7  N       7   1  H                                      1.0179613 (min)
     4   6  C       8   1  H                                      1.0941150
     4   6  C       9   1  H                                      1.0923784
     5   6  C      10   7  N                                      1.3807029
    10   7  N      11   6  C                                      1.4550624
    12   6  C      13   8  O                                      1.2139847
    10   7  N      14   1  H                                      1.0213175
    11   6  C      15   1  H                                      1.0932071
    11   6  C      16   1  H                                      1.0936047
    12   6  C      17   7  N                                      1.3861425
    17   7  N      18   6  C                                      1.4608241
    19   6  C      20   8  O                                      1.2120301
    17   7  N      21   1  H                                      1.0226153
    18   6  C      22   1  H                                      1.0944204
    18   6  C      23   1  H                                      1.0941896
    19   6  C      24   7  N                                      1.3728630
    24   7  N      25   6  C                                      1.4458672
    25   6  C      27   6  C                                      1.5178614 (max)
    26   6  C      28   8  O                                      1.2267201
    26   6  C      29   8  O                                      1.2270976
    24   7  N      30   1  H                                      1.0269517
    25   6  C      31   1  H                                      1.1023900
    27   6  C      32   1  H                                      1.0912033
    27   6  C      33   1  H                                      1.0922478
    27   6  C      34   1  H                                      1.0933408

 * 5 distinct bonds (by element types)

   Z      Z             #   av. dist./Å        max./Å        min./Å
   1 H    6 C          10     1.0941097     1.1023900     1.0912033
   6 C    6 C           1     1.5178614     1.5178614     1.5178614
   1 H    7 N           4     1.0222115     1.0269517     1.0179613
   6 C    7 N           8     1.4161530     1.4684732     1.3592889
   6 C    8 O           5     1.2184837     1.2270976     1.2120301


optimized geometry written to: xtbopt.pdb


           -------------------------------------------------
          | TOTAL ENERGY               -5.984778541331 Eh   |
          | GRADIENT NORM               0.001529042943 Eh/α |
           -------------------------------------------------
########################################################################
[WARNING] Runtime exception occurred
-1- gfnff_setup: Could not read topology file.
########################################################################

------------------------------------------------------------------------
 unit  open   action     filename
   10 false : read       xtb_settings.inp
   10 false : read       substructure_48.pdb
   10 false : read       xtb_settings.inp
   10 false : written    gfnff_topo
   10 false : written    gfnff_adjacency
   10 false : written    gfnff_charges
   10 false : deleted    .xtboptok
   10 false : replaced   xtbopt.log
   11 false : created    .xtboptok
   11 false : replaced   gfnff_charges
   10 false : replaced   xtbopt.pdb

------------------------------------------------------------------------
 * finished run on 2025/05/27 at 09:37:51.044     
------------------------------------------------------------------------
 total:
 * wall-time:     0 d,  0 h,  0 min,  0.012 sec
 *  cpu-time:     0 d,  0 h,  0 min,  0.012 sec
 * ratio c/w:     0.999 speedup
 SCF:
 * wall-time:     0 d,  0 h,  0 min,  0.001 sec
 *  cpu-time:     0 d,  0 h,  0 min,  0.001 sec
 * ratio c/w:     1.000 speedup
 ANC optimizer:
 * wall-time:     0 d,  0 h,  0 min,  0.008 sec
 *  cpu-time:     0 d,  0 h,  0 min,  0.008 sec
 * ratio c/w:     1.000 speedup

