      -----------------------------------------------------------      
     |                   =====================                   |     
     |                           x T B                           |     
     |                   =====================                   |     
     |                         S. Grimme                         |     
     |          Mulliken Center for Theoretical Chemistry        |     
     |                    University of Bonn                     |     
      -----------------------------------------------------------      

   * xtb version 6.6.1 (8d0f1dd) compiled by 'conda@1efc2f54142f' on 2023-08-01

   xtb is free software: you can redistribute it and/or modify it under
   the terms of the GNU Lesser General Public License as published by
   the Free Software Foundation, either version 3 of the License, or
   (at your option) any later version.
   
   xtb is distributed in the hope that it will be useful,
   but WITHOUT ANY WARRANTY; without even the implied warranty of
   MERCHANTABILITY or FITNESS FOR A PARTICULAR PURPOSE.  See the
   GNU Lesser General Public License for more details.
   
   Cite this work as:
   * C. Bannwarth, E. Caldeweyher, S. Ehlert, A. Hansen, P. Pracht,
     J. Seibert, S. Spicher, S. Grimme, WIREs Comput. Mol. Sci., 2020, 11,
     e01493. DOI: 10.1002/wcms.1493
   
   for GFN2-xTB:
   * C. Bannwarth, S. Ehlert and S. Grimme., J. Chem. Theory Comput., 2019,
     15, 1652-1671. DOI: 10.1021/acs.jctc.8b01176
   for GFN1-xTB:
   * S. Grimme, C. Bannwarth, P. Shushkov, J. Chem. Theory Comput., 2017,
     13, 1989-2009. DOI: 10.1021/acs.jctc.7b00118
   for GFN0-xTB:
   * P. Pracht, E. Caldeweyher, S. Ehlert, S. Grimme, ChemRxiv, 2019, preprint.
     DOI: 10.26434/chemrxiv.8326202.v1
   for GFN-FF:
   * S. Spicher and S. Grimme, Angew. Chem. Int. Ed., 2020, 59, 15665-15673.
     DOI: 10.1002/anie.202004239
   
   for ALPB and GBSA implicit solvation:
   * S. Ehlert, M. Stahn, S. Spicher, S. Grimme, J. Chem. Theory Comput.,
     2021, 17, 4250-4261. DOI: 10.1021/acs.jctc.1c00471
   
   for DFT-D4:
   * E. Caldeweyher, C. Bannwarth and S. Grimme, J. Chem. Phys., 2017,
     147, 034112. DOI: 10.1063/1.4993215
   * E. Caldeweyher, S. Ehlert, A. Hansen, H. Neugebauer, S. Spicher,
     C. Bannwarth and S. Grimme, J. Chem. Phys., 2019, 150, 154122.
     DOI: 10.1063/1.5090222
   * E. Caldeweyher, J.-M. Mewes, S. Ehlert and S. Grimme, Phys. Chem. Chem. Phys.
     2020, 22, 8499-8512. DOI: 10.1039/D0CP00502A
   
   for sTDA-xTB:
   * S. Grimme and C. Bannwarth, J. Chem. Phys., 2016, 145, 054103.
     DOI: 10.1063/1.4959605
   
   in the mass-spec context:
   * V. Asgeirsson, C. Bauer and S. Grimme, Chem. Sci., 2017, 8, 4879.
     DOI: 10.1039/c7sc00601b
   * J. Koopman and S. Grimme, ACS Omega 2019, 4, 12, 15120-15133.
     DOI: 10.1021/acsomega.9b02011
   
   for metadynamics refer to:
   * S. Grimme, J. Chem. Theory Comput., 2019, 155, 2847-2862
     DOI: 10.1021/acs.jctc.9b00143
   
   for SPH calculations refer to:
   * S. Spicher and S. Grimme, J. Chem. Theory Comput., 2021, 17, 1701-1714
     DOI: 10.1021/acs.jctc.0c01306
   
   with help from (in alphabetical order)
   P. Atkinson, C. Bannwarth, F. Bohle, G. Brandenburg, E. Caldeweyher
   M. Checinski, S. Dohm, S. Ehlert, S. Ehrlich, I. Gerasimov, C. Hölzer
   A. Katbashev, J. Koopman, C. Lavigne, S. Lehtola, F. März, M. Müller,
   F. Musil, H. Neugebauer, J. Pisarek, C. Plett, P. Pracht, F. Pultar,
   J. Seibert, P. Shushkov, S. Spicher, M. Stahn, M. Steiner, T. Strunk,
   J. Stückrath, T. Rose, and J. Unsleber
   
 * started run on 2025/05/27 at 09:37:43.749     

           -------------------------------------------------
          |                Calculation Setup                |
           -------------------------------------------------

          program call               : xtb substructure_27.pdb --gfnff --input xtb_settings.inp --opt vtight --alpb water --verbose
          coordinate file            : substructure_27.pdb
          xtbhome directory          : /home/dargen3
          path for xtb               : /home/dargen3
          xcontrol input file        : xtb_settings.inp
          omp threads                :                     1

$$$$$$$$$$$$$$$$$$$$$$$$$$$$$$$$$$$$$$$$$$$$$$$$$$$$$$$$$$$$$$$$$$$$$$$$
 CONSTRAINTS & SCANS: DEBUG SECTION
$$$$$$$$$$$$$$$$$$$$$$$$$$$$$$$$$$$$$$$$$$$$$$$$$$$$$$$$$$$$$$$$$$$$$$$$
   ID    Z sym.   atoms
    1    6  C     1, 4, 5, 11, 12, 18, 19, 25-27
    2    8  O     2, 6, 13, 20, 28, 29
    3    7  N     3, 10, 17, 24
    4    1  H     7-9, 14-16, 21-23, 30-34
> constrain
-> atoms: 1, 2, 3, 4, 5, 6, 7, 8, 9, 10, 11, 12, 13, 14, 15, 16, 18, 24, 25, 26, 27, 28, 29, 30, 31, 32, 33, 34
--> 1: 1
--> 2: 2
--> 3: 3
--> 4: 4
--> 5: 5
--> 6: 6
--> 7: 7
--> 8: 8
--> 9: 9
--> 10: 10
--> 11: 11
--> 12: 12
--> 13: 13
--> 14: 14
--> 15: 15
--> 16: 16
--> 17: 18
--> 18: 24
--> 19: 25
--> 20: 26
--> 21: 27
--> 22: 28
--> 23: 29
--> 24: 30
--> 25: 31
--> 26: 32
--> 27: 33
--> 28: 34
-> force constant=1.0
$$$$$$$$$$$$$$$$$$$$$$$$$$$$$$$$$$$$$$$$$$$$$$$$$$$$$$$$$$$$$$$$$$$$$$$$
           -------------------------------------------------
          |                   Constraints                   |
           -------------------------------------------------

 * 28 constrained atom positions
   positions refering to input geometry

     #   Z                                   position/Å      displ./Å
     1   6 C      3.1760003    -6.1040006    -7.5230007     0.0000000
     2   8 O      2.2880002    -5.4620005    -6.9990006     0.0000000
     3   7 N      4.2690004    -5.4300005    -8.0490007     0.0000000
     4   6 C      5.4280005    -5.9890006    -8.7440008     0.0000000
     5   6 C      5.4030005    -5.6690005   -10.2170009     0.0000000
     6   8 O      4.6380004    -6.2700006   -10.9400010     0.0000000
     7   1 H      4.2340004    -4.4140004    -8.0700007     0.0000000
     8   1 H      6.3420006    -5.6130005    -8.2880008     0.0000000
     9   1 H      5.4490005    -7.0790007    -8.6240008     0.0000000
    10   7 N      6.2550006    -4.6960004   -10.7010010     0.0000000
    11   6 C      6.1780006    -4.2520004   -12.0880011     0.0000000
    12   6 C      5.7790005    -2.7950003   -12.1550011     0.0000000
    13   8 O      4.7730004    -2.4630002   -11.5630011     0.0000000
    14   1 H      6.7600006    -4.0730004   -10.0700009     0.0000000
    15   1 H      7.1400007    -4.4250004   -12.5710012     0.0000000
    16   1 H      5.4260005    -4.8580005   -12.5860012     0.0000000
    18   6 C      7.7600007    -2.0220002   -13.5740013     0.0000000
    24   7 N      9.3030009    -0.8040001   -15.0340014     0.0000000
    25   6 C      9.7400009     0.3630000   -15.7630015     0.0000000
    26   6 C     10.9760010     0.0290000   -16.5890015     0.0000000
    27   6 C     10.0120009     1.5320001   -14.8300014     0.0000000
    28   8 O     11.6640011    -0.9070001   -16.1940015     0.0000000
    29   8 O     11.1800010     0.7410001   -17.5680016     0.0000000
    30   1 H      9.9610009    -1.5930001   -15.0190014     0.0000000
    31   1 H      8.9220008     0.6250001   -16.4540015     0.0000000
    32   1 H     10.8050010     1.2710001   -14.1270013     0.0000000
    33   1 H     10.3280010     2.4180002   -15.3860014     0.0000000
    34   1 H      9.1170008     1.7790002   -14.2530013     0.0000000

     applying 378 atom pairwise harmonic potentials
       applied force constant per pair:     0.0370370
     effective force constant per atom:     1.0000000
         constraining energy/grad norm:     0.0000000     0.0000000

     total constraint energy/grad norm:     0.0000000     0.0000000

          charge from pdb residues: 0

          entering GFN-FF setup routine... 34

          ==================== Thresholds ====================
          CN  :   150.00000
          rep :   500.00000
          disp:  2500.00000
          HB1 :   250.00000
          HB2 :   450.00000

          Pauling EN used:
          Z : 1  EN :  2.20
          Z : 6  EN :  2.55
          Z : 7  EN :  3.04
          Z : 8  EN :  3.44
          electric field strengths (au): 0.000

           ------------------------------------------------- 
          |           Force Field Initialization            |
           ------------------------------------------------- 

          distances ...
          ----------------------------------------
          generating topology and atomic info file ...
          pair mat ...
          computing topology distances matrix with Floyd-Warshall algo ...
          making topology EEQ charges ...
          #fragments for EEQ constrain from pdb file: 5
          ----------------------------------------
          generating topology and atomic info file ...
          pair mat ...
          computing topology distances matrix with Floyd-Warshall algo ...
          making topology EEQ charges ...
          #fragments for EEQ constrain from pdb file: 5
          rings ...
          # BATM   276
          # H in HB   14
          doing iterative Hueckel for 5 subsystem(s) ...
          iterative Hueckel run to get P ...
Hueckel system :  1 charge :   0 ndim/Nel :    3    3   eps(HOMO/LUMO)   -0.953659   -0.953659
Hueckel system :  2 charge :   0 ndim/Nel :    3    4   eps(HOMO/LUMO)   -0.912485   -0.912485
Hueckel system :  3 charge :   0 ndim/Nel :    3    4   eps(HOMO/LUMO)   -0.913765   -0.913765
Hueckel system :  4 charge :   0 ndim/Nel :    3    4   eps(HOMO/LUMO)   -0.921494   -0.921494
Hueckel system :  5 charge :   0 ndim/Nel :    3    3   eps(HOMO/LUMO)   -0.818293   -0.818293

  atom   neighbors  erfCN metchar sp-hybrid imet pi  qest     coordinates
    1   C      2    1.93   0.00        -2    0    1   0.120    6.001770  -11.534888  -14.216410
    2   O      1    0.98   0.00         2    0    1  -0.120    4.323693  -10.321684  -13.226193
    3   N      3    2.79   0.00        -3    0    1  -0.166    8.067241  -10.261213  -15.210406
    4   C      4    3.49   0.00         3    0    0   0.005   10.257433  -11.317570  -16.523765
    5   C      3    2.79   0.00         2    0    1   0.174   10.210190  -10.712857  -19.307332
    6   O      1    0.98   0.00         2    0    1  -0.352    8.764550  -11.848583  -20.673604
    7   H      1    0.98   0.00         0    0    0   0.153    8.001100   -8.341251  -15.250090
    8   H      1    0.97   0.00         0    0    0   0.093   11.984643  -10.607033  -15.662050
    9   H      1    0.97   0.00         0    0    0   0.093   10.297118  -13.377371  -16.296998
   10   N      3    2.79   0.00        -3    0    1  -0.166   11.820237   -8.874154  -20.221959
   11   C      4    3.49   0.00         3    0    0   0.004   11.674728   -8.035115  -22.843009
   12   C      3    2.79   0.00         2    0    1   0.172   10.920727   -5.281785  -22.969621
   13   O      1    0.98   0.00         2    0    1  -0.353    9.019663   -4.654395  -21.850903
   14   H      1    0.98   0.00         0    0    0   0.155   12.774549   -7.696855  -19.029542
   15   H      1    0.97   0.00         0    0    0   0.094   13.492645   -8.362038  -23.755747
   16   H      1    0.97   0.00         0    0    0   0.094   10.253654   -9.180290  -23.784093
   17   N      3    2.79   0.00        -3    0    1  -0.163   12.271881   -3.494104  -24.320775
   18   C      4    3.49   0.00         3    0    0   0.004   14.664275   -3.821026  -25.651142
   19   C      3    2.80   0.00         2    0    1   0.168   15.382371   -1.481545  -27.026863
   20   O      1    0.98   0.00         2    0    1  -0.352   14.033106    0.366607  -26.949384
   21   H      1    0.98   0.00         0    0    0   0.153   11.614257   -1.678077  -24.386916
   22   H      1    0.97   0.00         0    0    0   0.095   16.126923   -4.340701  -24.284870
   23   H      1    0.97   0.01         0    0    0   0.095   14.460184   -5.393278  -27.000407
   24   N      3    2.80   0.00        -3    0    1  -0.147   17.580122   -1.519340  -28.410143
   25   C      4    3.49   0.00         3    0    0   0.035   18.405932    0.685971  -29.787753
   26   C      3    2.79   0.00         2    0    1   0.267   20.741634    0.054802  -31.348667
   27   C      4    3.49   0.00         3    0    0  -0.062   18.919938    2.895060  -28.024638
   28   O      1    0.98   0.00         2    0    1  -0.330   22.041766   -1.713982  -30.602225
   29   O      1    0.98   0.00         2    0    1  -0.330   21.127138    1.400287  -33.198709
   30   H      1    0.98   0.00         0    0    0   0.159   18.823562   -3.010334  -28.381797
   31   H      1    0.97   0.01         0    0    0   0.103   16.860136    1.181079  -31.093554
   32   H      1    0.97   0.00         0    0    0   0.102   20.418491    2.401842  -26.696161
   33   H      1    0.97   0.00         0    0    0   0.102   19.517091    4.569358  -29.075326
   34   H      1    0.97   0.00         0    0    0   0.102   17.228633    3.361823  -26.934266

molecular fragment  # atoms  topo charge
       1             2             0.000
       2             7             0.000
       3             7             0.000
       4             7             0.000
       5            11            -0.000


          #atoms :   34
          #bonds :   33

 bond atoms        type  in ring    R      R0    piBO    fqq  kbond(tot)  alp
 O  C     2    1      2    0     1.215   0.995   0.799   1.047  -0.252   0.584
 N  C     3    1      2    0     1.388   1.214   0.504   1.047  -0.235   0.524
 C  N     4    3      1    0     1.462   1.325 -99.000   1.033  -0.151   0.496
 C  C     5    4      1    0     1.508   1.332 -99.000   1.013  -0.162   0.475
 O  C     6    5      2    0     1.212   1.031   0.856   1.047  -0.262   0.584
 H  N     7    3      1    0     1.017   0.890 -99.000   1.047  -0.176   0.551
 H  C     8    4      1    0     1.088   0.976 -99.000   1.018  -0.164   0.482
 H  C     9    4      1    0     1.097   0.976 -99.000   1.018  -0.164   0.482
 N  C    10    5      2    0     1.381   1.263   0.503   1.047  -0.234   0.524
 C  N    11   10      1    0     1.458   1.326 -99.000   1.032  -0.151   0.496
 C  C    12   11      1    0     1.512   1.332 -99.000   1.014  -0.162   0.475
 O  C    13   12      2    0     1.214   1.031   0.857   1.047  -0.262   0.584
 H  N    14   10      1    0     1.020   0.890 -99.000   1.047  -0.176   0.551
 H  C    15   11      1    0     1.090   0.976 -99.000   1.018  -0.164   0.482
 H  C    16   11      1    0     1.087   0.977 -99.000   1.018  -0.164   0.482
 N  C    17   12      2    0     1.385   1.263   0.503   1.047  -0.234   0.524
 C  N    18   17      1    0     1.459   1.326 -99.000   1.030  -0.151   0.496
 C  C    19   18      1    0     1.486   1.332 -99.000   1.016  -0.163   0.475
 O  C    20   19      2    0     1.212   1.031   0.857   1.047  -0.262   0.584
 H  N    21   17      1    0     1.023   0.890 -99.000   1.047  -0.176   0.551
 H  C    22   18      1    0     1.094   0.976 -99.000   1.019  -0.164   0.482
 H  C    23   18      1    0     1.102   0.976 -99.000   1.019  -0.164   0.482
 N  C    24   19      2    0     1.374   1.264   0.501   1.047  -0.234   0.524
 C  N    25   24      1    0     1.444   1.326 -99.000   1.047  -0.153   0.496
 C  C    26   25      1    0     1.524   1.332 -99.000   1.000  -0.160   0.475
 C  C    27   25      1    0     1.520   1.371 -99.000   1.043  -0.155   0.468
 O  C    28   26      2    0     1.227   1.058   0.703   1.047  -0.236   0.584
 O  C    29   26      2    0     1.228   1.058   0.703   1.047  -0.236   0.584
 H  N    30   24      1    0     1.027   0.890 -99.000   1.047  -0.176   0.551
 H  C    31   25      1    0     1.102   0.976 -99.000   1.001  -0.161   0.482
 H  C    32   27      1    0     1.091   0.976 -99.000   1.047  -0.169   0.482
 H  C    33   27      1    0     1.093   0.976 -99.000   1.047  -0.169   0.482
 H  C    34   27      1    0     1.093   0.976 -99.000   1.047  -0.169   0.482
          #angl  :   55

 angle atoms        phi0    phi      FC  pi rings
    1    3    2   145.000 118.859   0.082 F   0
    3    4    1   115.000 128.221   0.411 F   0
    3    7    1   115.000 117.777   0.335 F   0
    3    7    4   104.000 113.540   0.182 F   0
    4    5    3   109.500 111.719   0.307 F   0
    4    8    3   109.500 109.533   0.253 F   0
    4    8    5   109.500 110.484   0.251 F   0
    4    9    3   109.500 110.063   0.253 F   0
    4    9    5   109.500 108.552   0.251 F   0
    4    9    8   108.600 106.343   0.209 F   0
    5    6    4   120.000 119.211   0.178 F   0
    5   10    4   120.000 118.802   0.243 F   0
    5   10    6   120.000 121.986   0.177 F   0
   10   11    5   115.000 121.017   0.409 F   0
   10   14    5   115.000 121.251   0.333 F   0
   10   14   11   104.000 115.363   0.182 F   0
   11   12   10   109.500 110.452   0.307 F   0
   11   15   10   109.500 109.053   0.253 F   0
   11   15   12   109.500 111.475   0.251 F   0
   11   16   10   109.500 107.615   0.253 F   0
   11   16   12   109.500 109.539   0.251 F   0
   11   16   15   108.600 108.609   0.209 F   0
   12   13   11   120.000 117.434   0.178 F   0
   12   17   11   120.000 123.018   0.243 F   0
   12   17   13   120.000 119.540   0.177 F   0
   17   18   12   115.000 128.043   0.410 F   0
   17   21   12   115.000 118.944   0.334 F   0
   17   21   18   104.000 112.968   0.182 F   0
   18   19   17   109.500 111.077   0.307 F   0
   18   22   17   109.500 108.952   0.253 F   0
   18   22   19   109.500 110.626   0.251 F   0
   18   23   17   109.500 108.496   0.253 F   0
   18   23   19   109.500 109.683   0.251 F   0
   18   23   22   108.600 107.924   0.209 F   0
   19   20   18   120.000 120.354   0.178 F   0
   19   24   18   120.000 117.732   0.243 F   0
   19   24   20   120.000 121.901   0.177 F   0
   24   25   19   115.000 120.886   0.409 F   0
   24   30   19   115.000 123.047   0.335 F   0
   24   30   25   104.000 115.737   0.182 F   0
   25   26   24   109.500 110.004   0.307 F   0
   25   27   24   109.500 111.459   0.305 F   0
   25   27   26   109.500 110.863   0.305 F   0
   25   31   24   109.500 106.500   0.253 F   0
   25   31   26   109.500 108.314   0.253 F   0
   25   31   27   109.500 109.555   0.251 F   0
   26   28   25   120.000 116.588   0.176 F   0
   26   29   25   120.000 116.104   0.176 F   0
   26   29   28   122.000 127.301   0.252 F   0
   27   32   25   109.500 109.964   0.250 F   0
   27   33   25   109.500 111.283   0.250 F   0
   27   33   32   108.600 108.151   0.207 F   0
   27   34   25   109.500 110.561   0.250 F   0
   27   34   32   108.600 107.995   0.207 F   0
   27   34   33   108.600 108.792   0.207 F   0
 torsion atoms        nrot   rings    phi0    phi      FC
    3    1    4    2   2      0     180.000 178.517   0.764
    3    1    7    2   2      0     180.000   6.869   1.134
    4    3    5    1   3      0     180.000 108.488   0.024
    4    3    5    7   3      0     180.000  63.454   0.032
    4    3    8    1   3      0     180.000 128.760   0.034
    4    3    8    7   3      0     180.000  59.298   0.045
    4    3    9    1   3      0     180.000  12.181   0.034
    4    3    9    7   3      0     180.000 175.877   0.045
    5    4    6    3   3      0     180.000  75.152   0.066
    5    4    6    8   3      0     180.000 162.640   0.115
    5    4    6    9   3      0     180.000  46.394   0.115
    5    4   10    3   3      0     180.000 104.797   0.041
    5    4   10    8   3      0     180.000  17.411   0.072
    5    4   10    9   3      0     180.000 133.657   0.072
   10    5   11    4   2      0     180.000 173.727   0.612
   10    5   11    6   2      0     180.000   6.221   0.829
   10    5   14    4   2      0     180.000  12.012   0.907
   10    5   14    6   2      0     180.000 167.935   1.230
   11   10   12    5   3      0     180.000 115.967   0.022
   11   10   12   14   3      0     180.000  46.765   0.032
   11   10   15    5   3      0     180.000 121.202   0.032
   11   10   15   14   3      0     180.000  76.066   0.045
   11   10   16    5   3      0     180.000   3.565   0.032
   11   10   16   14   3      0     180.000 166.297   0.045
   12   11   13   10   3      0     180.000  53.223   0.066
   12   11   13   15   3      0     180.000 174.629   0.115
   12   11   13   16   3      0     180.000  65.140   0.115
   12   11   17   10   3      0     180.000 127.790   0.041
   12   11   17   15   3      0     180.000   6.384   0.072
   12   11   17   16   3      0     180.000 113.846   0.072
   17   12   18   11   2      0     180.000   5.173   0.607
   17   12   18   13   2      0     180.000 175.862   0.823
   17   12   21   11   2      0     180.000 177.448   0.901
   17   12   21   13   2      0     180.000   1.518   1.221
   18   17   19   12   3      0     180.000 175.725   0.022
   18   17   19   21   3      0     180.000   6.766   0.032
   18   17   22   12   3      0     180.000  62.167   0.032
   18   17   22   21   3      0     180.000 115.342   0.045
   18   17   23   12   3      0     180.000  55.091   0.032
   18   17   23   21   3      0     180.000 127.400   0.045
   19   18   20   17   3      0     180.000   0.150   0.065
   19   18   20   22   3      0     180.000 121.279   0.114
   19   18   20   23   3      0     180.000 119.781   0.114
   19   18   24   17   3      0     180.000 178.873   0.041
   19   18   24   22   3      0     180.000  59.998   0.072
   19   18   24   23   3      0     180.000  58.942   0.072
   24   19   25   18   2      0     180.000 179.727   0.587
   24   19   25   20   2      0     180.000   1.571   0.795
   24   19   30   18   2      0     180.000   6.605   0.871
   24   19   30   20   2      0     180.000 174.693   1.180
   25   24   26   19   3      0     180.000 174.569   0.023
   25   24   26   30   3      0     180.000  11.830   0.032
   25   24   27   19   3      0     180.000  62.041   0.022
   25   24   27   30   3      0     180.000 111.561   0.031
   25   24   31   19   3      0     180.000  57.400   0.032
   25   24   31   30   3      0     180.000 128.998   0.046
   26   25   28   24   3      0     180.000  24.836   0.054
   26   25   28   27   3      0     180.000  98.902   0.064
   26   25   28   31   3      0     180.000 140.869   0.094
   26   25   29   24   3      0     180.000 156.073   0.054
   26   25   29   27   3      0     180.000  80.189   0.064
   26   25   29   31   3      0     180.000  40.040   0.094
   27   25   32   24   3      0     180.000  61.042   0.120
   27   25   32   26   3      0     180.000  61.859   0.148
   27   25   32   31   3      0     180.000 178.654   0.210
   27   25   33   24   3      0     180.000 179.143   0.120
   27   25   33   26   3      0     180.000  57.956   0.148
   27   25   33   31   3      0     180.000  61.531   0.210
   27   25   34   24   3      0     180.000  58.121   0.120
   27   25   34   26   3      0     180.000 178.978   0.148
   27   25   34   31   3      0     180.000  59.491   0.210
 out-of-plane atoms          phi0    phi      FC
    3    7    1    4          0.000   6.552   0.134
    5    6   10    4          0.000   0.046  23.864
   10   14    5   11          0.000  15.598   0.134
   12   13   17   11          0.000  -0.867  23.795
   17   21   12   18          0.000  -2.064   0.146
   19   20   24   18          0.000  -1.149  23.568
   24   30   19   25          0.000   5.899   0.208
   26   28   29   25          0.000  -0.918  27.634
          #tors  :   79
          #nmol  :   5
          #optfrag :   5

 GFN-FF setup done.

           ------------------------------------------------- 
          |                   G F N - F F                   |
          |          A general generic force-field          |
          |                  Version 1.0.3                  | 
           ------------------------------------------------- 
      * Solvation model:               ALPB
        Solvent                        water
        Parameter file                 internal GFN-FF/ALPB
        Dielectric constant                8.0200E+01
        Reference state                gsolv [1 M gas/solution]
        Free energy shift                  3.6494E-04 Eh       2.2900E-01 kcal/mol
        Temperature                        2.9815E+02 K
        Density                            1.0000E+00 kg/L
        Solvent mass                       1.8000E+01 g/mol
        Interaction kernel             P16
        Born radius scaling (c1)           1.5056E+00
        Born radii integrator          GBOBC
        Born offset                        0.0000E+00 a0       0.0000E+00 AA
        H-bond correction              true
        Ion screening                  false
        Surface tension                    1.0000E-05 Eh       1.5569E+01 dyn/cm
        Grid points                               230 per atom
          Number of HB bonds (bound hydrogen)     270
          Number of HB bonds (unbound hydrogen)   28
          Number of XB bonds                      0

 E+G (total)                   0 d,  0 h,  0 min,  0.001 sec
 distance/D3 list               ...        0 min,  0.000 sec (  0.300%)
 non bonded repulsion           ...        0 min,  0.000 sec (  2.256%)
 dCN                            ...        0 min,  0.000 sec (  3.006%)
 EEQ energy and q               ...        0 min,  0.000 sec (  4.087%)
 D3                             ...        0 min,  0.000 sec (  8.269%)
 EEQ gradient                   ...        0 min,  0.000 sec (  5.114%)
 bonds                          ...        0 min,  0.000 sec (  0.916%)
 bend and torsion               ...        0 min,  0.000 sec (  4.154%)
 bonded ATM                     ...        0 min,  0.000 sec (  1.755%)
 HB/XB (incl list setup)        ...        0 min,  0.000 sec (  7.509%)
 GBSA                           ...        0 min,  0.000 sec ( 65.620%)

         :::::::::::::::::::::::::::::::::::::::::::::::::::::
         ::                     SUMMARY                     ::
         :::::::::::::::::::::::::::::::::::::::::::::::::::::
         :: total energy              -5.982174292897 Eh    ::
         :: total w/o Gsolv           -5.940373470632 Eh    ::
         :: total w/o Gsasa/hb        -5.980944146623 Eh    ::
         :: gradient norm              0.062351435096 Eh/a0 ::
         ::.................................................::
         :: bond energy               -5.966262359748 Eh    ::
         :: angle energy               0.026778126067 Eh    ::
         :: torsion energy             0.006665474465 Eh    ::
         :: repulsion energy           0.388505811849 Eh    ::
         :: electrostat energy        -0.364503016496 Eh    ::
         :: dispersion energy         -0.022408235880 Eh    ::
         :: HB energy                 -0.001351932128 Eh    ::
         :: XB energy                  0.000000000000 Eh    ::
         :: bonded atm energy         -0.007797338762 Eh    ::
         :: external energy            0.000000000000 Eh    ::
         :: -> Gsolv                  -0.041800822265 Eh    ::
         ::    -> Gborn               -0.040570675991 Eh    ::
         ::    -> Gsasa                0.013333229151 Eh    ::
         ::    -> Ghb                 -0.014928314680 Eh    ::
         ::    -> Gshift               0.000364939255 Eh    ::
         :: add. restraining           0.000000000000 Eh    ::
         :: total charge               0.000000000000 e     ::
         ::.................................................::
         :: atomisation energy         0.000000000000 Eh    ::
         :::::::::::::::::::::::::::::::::::::::::::::::::::::

      ----------------------------------------------------------- 
     |                   =====================                   |
     |                        A N C O P T                        |
     |                   =====================                   |
     |               Approximate Normal Coordinate               |
     |                Rational Function Optimizer                |
      ----------------------------------------------------------- 

          ...................................................
          :                      SETUP                      :
          :.................................................:
          :   optimization level         verytight          :
          :   max. optcycles                    10          :
          :   ANC micro-cycles                  10          :
          :   degrees of freedom                96          :
          :.................................................:
          :   RF solver                   davidson          :
          :   write xtbopt.log                true          :
          :   linear?                        false          :
          :   energy convergence         0.1000000E-06 Eh   :
          :   grad. convergence          0.2000000E-03 Eh/α :
          :   maxmium RF displ.          1.0000000          :
          :   Hlow (freq-cutoff)         0.1000000E-01      :
          :   Hmax (freq-cutoff)         5.0000000          :
          :   S6 in model hess.         20.0000000          :
          ...................................................

generating ANC from model Hessian ...
Using GFN-FF Lindh-Hessian
 Shifting diagonal of input Hessian by    0.0000000000000000     
 Lowest  eigenvalues of input Hessian
    0.000000    0.000000    0.000000    0.000000    0.000000    0.000000
    0.016182    0.022145    0.024241    0.034930    0.050436    0.082440
    0.092556    0.102811    0.112409    0.119732    0.139630    0.149330
 Highest eigenvalues
    3.294488    3.814281    3.846795    3.862939    4.131951    4.415589


........................................................................
.............................. CYCLE    1 ..............................
........................................................................
     iter. time                 ...        0 min,  0.001 sec
 * total energy  :    -5.9821743 Eh     change        0.0000000E+00 Eh
   gradient norm :     0.0623514 Eh/α   predicted     0.0000000E+00 (    NaN%)
   displ. norm   :     0.0528577 α      lambda       -0.2061192E-02
   maximum displ.:     0.0211388 α      in ANC's #13, #21, #32, ...

........................................................................
.............................. CYCLE    2 ..............................
........................................................................
     iter. time                 ...        0 min,  0.001 sec
 * total energy  :    -5.9836479 Eh     change       -0.1473629E-02 Eh
   gradient norm :     0.0278193 Eh/α   predicted    -0.1033484E-02 ( -29.87%)
   displ. norm   :     0.0493463 α      lambda       -0.1020369E-02
   maximum displ.:     0.0278364 α      in ANC's #32, #21, #30, ...

........................................................................
.............................. CYCLE    3 ..............................
........................................................................
     iter. time                 ...        0 min,  0.000 sec
 * total energy  :    -5.9842702 Eh     change       -0.6223167E-03 Eh
   gradient norm :     0.0114614 Eh/α   predicted    -0.5114705E-03 ( -17.81%)
   displ. norm   :     0.0300606 α      lambda       -0.2148724E-03
   maximum displ.:     0.0172137 α      in ANC's #32, #30, #21, ...

........................................................................
.............................. CYCLE    4 ..............................
........................................................................
     iter. time                 ...        0 min,  0.000 sec
 * total energy  :    -5.9844251 Eh     change       -0.1548689E-03 Eh
   gradient norm :     0.0090565 Eh/α   predicted    -0.1075410E-03 ( -30.56%)
   displ. norm   :     0.0320612 α      lambda       -0.1325509E-03
   maximum displ.:     0.0156324 α      in ANC's #32, #30, #21, ...

........................................................................
.............................. CYCLE    5 ..............................
........................................................................
     iter. time                 ...        0 min,  0.000 sec
 * total energy  :    -5.9845049 Eh     change       -0.7982655E-04 Eh
   gradient norm :     0.0042281 Eh/α   predicted    -0.6638806E-04 ( -16.83%)
   displ. norm   :     0.0123315 α      lambda       -0.2009693E-04
   maximum displ.:     0.0065142 α      in ANC's #1, #2, #21, ...

........................................................................
.............................. CYCLE    6 ..............................
........................................................................
     iter. time                 ...        0 min,  0.000 sec
 * total energy  :    -5.9845187 Eh     change       -0.1373983E-04 Eh
   gradient norm :     0.0020423 Eh/α   predicted    -0.1006612E-04 ( -26.74%)
   displ. norm   :     0.0114818 α      lambda       -0.9330823E-05
   maximum displ.:     0.0088667 α      in ANC's #1, #2, #21, ...

........................................................................
.............................. CYCLE    7 ..............................
........................................................................
     iter. time                 ...        0 min,  0.000 sec
 * total energy  :    -5.9845248 Eh     change       -0.6135875E-05 Eh
   gradient norm :     0.0013184 Eh/α   predicted    -0.4679844E-05 ( -23.73%)
   displ. norm   :     0.0137065 α      lambda       -0.3432667E-05
   maximum displ.:     0.0117493 α      in ANC's #1, #2, #39, ...

........................................................................
.............................. CYCLE    8 ..............................
........................................................................
     iter. time                 ...        0 min,  0.000 sec
 * total energy  :    -5.9845276 Eh     change       -0.2748076E-05 Eh
   gradient norm :     0.0010234 Eh/α   predicted    -0.1722161E-05 ( -37.33%)
   displ. norm   :     0.0143095 α      lambda        0.2785591E-05
   maximum displ.:     0.0122931 α      in ANC's #1, #2, #39, ...

........................................................................
.............................. CYCLE    9 ..............................
........................................................................
     iter. time                 ...        0 min,  0.000 sec
 * total energy  :    -5.9845255 Eh     change        0.2079231E-05 Eh
   gradient norm :     0.0018179 Eh/α   predicted     0.1390340E-05 ( -33.13%)
   displ. norm   :     0.0090294 α      lambda       -0.3867397E-05
   maximum displ.:     0.0070172 α      in ANC's #1, #2, #21, ...

........................................................................
.............................. CYCLE   10 ..............................
........................................................................
     iter. time                 ...        0 min,  0.000 sec
 * total energy  :    -5.9845288 Eh     change       -0.3330900E-05 Eh
   gradient norm :     0.0005922 Eh/α   predicted    -0.1940323E-05 ( -41.75%)
   displ. norm   :     0.0045501 α      lambda       -0.6151097E-06
   maximum displ.:     0.0036107 α      in ANC's #1, #2, #4, ...

   *** FAILED TO CONVERGE GEOMETRY OPTIMIZATION IN 10 ITERATIONS ***


 ANCopt (total)                0 d,  0 h,  0 min,  0.007 sec
 optimizer setup                ...        0 min,  0.000 sec (  0.888%)
 model hessian                  ...        0 min,  0.000 sec (  3.516%)
 ANC generation                 ...        0 min,  0.001 sec (  9.243%)
 coordinate transformation      ...        0 min,  0.000 sec (  0.426%)
 single point calculation       ...        0 min,  0.005 sec ( 74.010%)
 optimization log               ...        0 min,  0.000 sec (  5.895%)
 hessian update                 ...        0 min,  0.000 sec (  0.645%)
 rational function              ...        0 min,  0.000 sec (  3.218%)

================
 final structure:
================
ATOM      1  C   GLY A  14       3.208  -6.075  -7.489  1.00  0.00           C  
ATOM      2  O   GLY A  14       2.262  -5.492  -7.031  1.00  0.00           O  
ATOM      3  N   GLY A  15       4.265  -5.427  -8.047  1.00  0.00           N  
ATOM      4  CA  GLY A  15       5.425  -5.993  -8.748  1.00  0.00           C  
ATOM      5  C   GLY A  15       5.403  -5.669 -10.217  1.00  0.00           C  
ATOM      6  O   GLY A  15       4.638  -6.270 -10.940  1.00  0.00           O  
ATOM      7  H   GLY A  15       4.231  -4.410  -8.072  1.00  0.00           H  
ATOM      8  HA2 GLY A  15       6.342  -5.612  -8.288  1.00  0.00           H  
ATOM      9  HA3 GLY A  15       5.444  -7.079  -8.625  1.00  0.00           H  
ATOM     10  N   GLY A  16       6.255  -4.696 -10.701  1.00  0.00           N  
ATOM     11  CA  GLY A  16       6.180  -4.247 -12.083  1.00  0.00           C  
ATOM     12  C   GLY A  16       5.778  -2.797 -12.157  1.00  0.00           C  
ATOM     13  O   GLY A  16       4.772  -2.463 -11.565  1.00  0.00           O  
ATOM     14  H   GLY A  16       6.760  -4.072 -10.070  1.00  0.00           H  
ATOM     15  HA2 GLY A  16       7.140  -4.426 -12.572  1.00  0.00           H  
ATOM     16  HA3 GLY A  16       5.426  -4.860 -12.587  1.00  0.00           H  
ATOM     17  N   GLY A  17       6.496  -1.848 -12.868  1.00  0.00           N  
ATOM     18  CA  GLY A  17       7.760  -2.030 -13.578  1.00  0.00           C  
ATOM     19  C   GLY A  17       8.142  -0.785 -14.303  1.00  0.00           C  
ATOM     20  O   GLY A  17       7.442   0.202 -14.238  1.00  0.00           O  
ATOM     21  H   GLY A  17       6.153  -0.885 -12.896  1.00  0.00           H  
ATOM     22  HA2 GLY A  17       8.534  -2.301 -12.854  1.00  0.00           H  
ATOM     23  HA3 GLY A  17       7.649  -2.855 -14.289  1.00  0.00           H  
ATOM     24  N   ALA A  18       9.303  -0.805 -15.035  1.00  0.00           N  
ATOM     25  CA  ALA A  18       9.739   0.365 -15.764  1.00  0.00           C  
ATOM     26  C   ALA A  18      10.975   0.029 -16.590  1.00  0.00           C  
ATOM     27  CB  ALA A  18      10.010   1.532 -14.832  1.00  0.00           C  
ATOM     28  O   ALA A  18      11.663  -0.907 -16.195  1.00  0.00           O  
ATOM     29  OXT ALA A  18      11.179   0.740 -17.569  1.00  0.00           O  
ATOM     30  H   ALA A  18       9.960  -1.594 -15.021  1.00  0.00           H  
ATOM     31  HA  ALA A  18       8.921   0.623 -16.456  1.00  0.00           H  
ATOM     32  HB1 ALA A  18      10.802   1.272 -14.129  1.00  0.00           H  
ATOM     33  HB2 ALA A  18      10.326   2.418 -15.388  1.00  0.00           H  
ATOM     34  HB3 ALA A  18       9.114   1.779 -14.256  1.00  0.00           H  
END

 Bond Distances (Angstroems)
 ---------------------------
C1-O2=1.2020         C1-N3=1.3595         O2-C1=1.2020         N3-C1=1.3595         N3-C4=1.4683         N3-H7=1.0180         
C4-N3=1.4683         C4-C5=1.5039         C4-H8=1.0944         C4-H9=1.0929         C5-C4=1.5039         C5-O6=1.2126         
C5-N10=1.3807        O6-C5=1.2126         H7-N3=1.0180         H8-C4=1.0944         H9-C4=1.0929         N10-C5=1.3807        
N10-C11=1.4548       N10-H14=1.0211       C11-N10=1.4548       C11-C12=1.5067       C11-H15=1.0926       C11-H16=1.0939       
C12-C11=1.5067       C12-O13=1.2140       C12-N17=1.3858       O13-C12=1.2140       H14-N10=1.0211       H15-C11=1.0926       
H16-C11=1.0939       N17-C12=1.3858       N17-C18=1.4612       N17-H21=1.0226       C18-N17=1.4612       C18-C19=1.4907       
C18-H22=1.0944       C18-H23=1.0943       C19-C18=1.4907       C19-O20=1.2120       C19-N24=1.3720       O20-C19=1.2120       
H21-N17=1.0226       H22-C18=1.0944       H23-C18=1.0943       N24-C19=1.3720       N24-C25=1.4455       N24-H30=1.0268       
C25-N24=1.4455       C25-C26=1.5245       C25-C27=1.5177       C25-H31=1.1025       C26-C25=1.5245       C26-O28=1.2271       
C26-O29=1.2273       C27-C25=1.5177       C27-H32=1.0911       C27-H33=1.0926       C27-H34=1.0933       O28-C26=1.2271       
O29-C26=1.2273       H30-N24=1.0268       H31-C25=1.1025       H32-C27=1.0911       H33-C27=1.0926       H34-C27=1.0933       
 C  H  Rav=1.0942 sigma=0.0029  Rmin=1.0911  Rmax=1.1025    10
 C  C  Rav=1.5087 sigma=0.0117  Rmin=1.4907  Rmax=1.5245     5
 N  H  Rav=1.0222 sigma=0.0032  Rmin=1.0180  Rmax=1.0268     4
 N  C  Rav=1.4160 sigma=0.0425  Rmin=1.3595  Rmax=1.4683     8
 O  C  Rav=1.2158 sigma=0.0089  Rmin=1.2020  Rmax=1.2273     6

 selected bond angles (degree)
 --------------------
N3-C1-O2=122.48                C4-N3-C1=128.78                H7-N3-C1=117.41                H7-N3-C4=113.55                
C5-C4-N3=111.82                H8-C4-N3=109.08                H8-C4-C5=110.33                H9-C4-N3=110.07                
H9-C4-C5=108.93                H9-C4-H8=106.47                O6-C5-C4=119.00                N10-C5-C4=119.07               
N10-C5-O6=121.93               C11-N10-C5=121.27              H14-N10-C5=121.21              H14-N10-C11=115.09             

 selected dihedral angles (degree)
 ---------------------------------
C4-N3-C1-O2=185.97            H7-N3-C1-O2=359.66            C5-C4-N3-C1=111.03            C5-C4-N3-H7=297.14            
H8-C4-N3-C1=233.34            H8-C4-N3-H7= 59.46            H9-C4-N3-C1=349.81            H9-C4-N3-H7=175.92            
O6-C5-C4-N3=284.47            O6-C5-C4-H8=162.87            O6-C5-C4-H9= 46.34            N10-C5-C4-N3=104.46           
N10-C5-C4-H8=342.87           N10-C5-C4-H9=226.34           C11-N10-C5-C4=186.42          C11-N10-C5-O6=  6.42          
H14-N10-C5-C4=347.89          H14-N10-C5-O6=167.88          
           -------------------------------------------------
          |                Final Singlepoint                |
           -------------------------------------------------
         :::::::::::::::::::::::::::::::::::::::::::::::::::::
         ::                     SUMMARY                     ::
         :::::::::::::::::::::::::::::::::::::::::::::::::::::
         :: total energy              -5.984529628522 Eh    ::
         :: total w/o Gsolv           -5.942674245536 Eh    ::
         :: total w/o Gsasa/hb        -5.983289119669 Eh    ::
         :: gradient norm              0.000425502185 Eh/a0 ::
         ::.................................................::
         :: bond energy               -5.972187871709 Eh    ::
         :: angle energy               0.026220422539 Eh    ::
         :: torsion energy             0.006639050753 Eh    ::
         :: repulsion energy           0.391707885285 Eh    ::
         :: electrostat energy        -0.364685169556 Eh    ::
         :: dispersion energy         -0.022411324236 Eh    ::
         :: HB energy                 -0.001335478260 Eh    ::
         :: XB energy                  0.000000000000 Eh    ::
         :: bonded atm energy         -0.007759584472 Eh    ::
         :: external energy            0.000000000000 Eh    ::
         :: -> Gsolv                  -0.041855382986 Eh    ::
         ::    -> Gborn               -0.040614874132 Eh    ::
         ::    -> Gsasa                0.013378428838 Eh    ::
         ::    -> Ghb                 -0.014983876946 Eh    ::
         ::    -> Gshift               0.000364939255 Eh    ::
         :: add. restraining           0.001137824119 Eh    ::
         :: total charge              -0.000000000000 e     ::
         ::.................................................::
         :: atomisation energy         0.000000000000 Eh    ::
         :::::::::::::::::::::::::::::::::::::::::::::::::::::

           -------------------------------------------------
          |                Property Printout                |
           -------------------------------------------------
           -------------------------------------------------
          |                Geometry Summary                 |
           -------------------------------------------------

      molecular mass/u    :      286.2417719
   center of mass at/Å    :        7.0562676      -2.6081334     -12.5118174
  moments of inertia/u·Å² :        0.4447587E+03   0.6366844E+04   0.6578415E+04
rotational constants/cm⁻¹ :        0.3790288E-01   0.2647722E-02   0.2562567E-02

 * 28 selected distances

     #   Z          #   Z                                           value/Å
     1   6  C       3   7  N                                      1.3594537
     3   7  N       4   6  C                                      1.4683438
     5   6  C       6   8  O                                      1.2126190
     3   7  N       7   1  H                                      1.0180405 (min)
     4   6  C       8   1  H                                      1.0944176
     4   6  C       9   1  H                                      1.0928507
     5   6  C      10   7  N                                      1.3807287
    10   7  N      11   6  C                                      1.4547790
    12   6  C      13   8  O                                      1.2139521
    10   7  N      14   1  H                                      1.0211252
    11   6  C      15   1  H                                      1.0925794
    11   6  C      16   1  H                                      1.0939148
    12   6  C      17   7  N                                      1.3857990
    17   7  N      18   6  C                                      1.4611805
    19   6  C      20   8  O                                      1.2119997
    17   7  N      21   1  H                                      1.0226286
    18   6  C      22   1  H                                      1.0944454
    18   6  C      23   1  H                                      1.0942701
    19   6  C      24   7  N                                      1.3720416
    24   7  N      25   6  C                                      1.4454820
    25   6  C      27   6  C                                      1.5176855 (max)
    26   6  C      28   8  O                                      1.2270958
    26   6  C      29   8  O                                      1.2272582
    24   7  N      30   1  H                                      1.0268355
    25   6  C      31   1  H                                      1.1025362
    27   6  C      32   1  H                                      1.0911419
    27   6  C      33   1  H                                      1.0926258
    27   6  C      34   1  H                                      1.0933036

 * 5 distinct bonds (by element types)

   Z      Z             #   av. dist./Å        max./Å        min./Å
   1 H    6 C          10     1.0942086     1.1025362     1.0911419
   6 C    6 C           1     1.5176855     1.5176855     1.5176855
   1 H    7 N           4     1.0221575     1.0268355     1.0180405
   6 C    7 N           8     1.4159760     1.4683438     1.3594537
   6 C    8 O           5     1.2185850     1.2272582     1.2119997


optimized geometry written to: xtbopt.pdb


           -------------------------------------------------
          | TOTAL ENERGY               -5.984529628522 Eh   |
          | GRADIENT NORM               0.000425502185 Eh/α |
           -------------------------------------------------
########################################################################
[WARNING] Runtime exception occurred
-1- gfnff_setup: Could not read topology file.
########################################################################

------------------------------------------------------------------------
 unit  open   action     filename
   10 false : read       xtb_settings.inp
   10 false : read       substructure_27.pdb
   10 false : read       xtb_settings.inp
   10 false : written    gfnff_topo
   10 false : written    gfnff_adjacency
   10 false : written    gfnff_charges
   10 false : deleted    .xtboptok
   10 false : replaced   xtbopt.log
   11 false : created    .xtboptok
   11 false : replaced   gfnff_charges
   10 false : replaced   xtbopt.pdb

------------------------------------------------------------------------
 * finished run on 2025/05/27 at 09:37:43.760     
------------------------------------------------------------------------
 total:
 * wall-time:     0 d,  0 h,  0 min,  0.012 sec
 *  cpu-time:     0 d,  0 h,  0 min,  0.012 sec
 * ratio c/w:     0.999 speedup
 SCF:
 * wall-time:     0 d,  0 h,  0 min,  0.001 sec
 *  cpu-time:     0 d,  0 h,  0 min,  0.001 sec
 * ratio c/w:     0.999 speedup
 ANC optimizer:
 * wall-time:     0 d,  0 h,  0 min,  0.008 sec
 *  cpu-time:     0 d,  0 h,  0 min,  0.008 sec
 * ratio c/w:     0.999 speedup

