34
 energy: -5.982571002299 gnorm: 0.063092979915 xtb: 6.6.1 (8d0f1dd)
 C           3.14700000000000       -6.10100000000000       -7.57900000000000
 O           2.22500000000000       -5.45800000000000       -7.11800000000000
 N           4.25300000000000       -5.42800000000000       -8.07800000000000
 C           5.42800000000000       -5.98900000000000       -8.74400000000000
 C           5.41900000000000       -5.68200000000000      -10.22200000000000
 O           4.64300000000000       -6.27300000000000      -10.94200000000000
 H           4.19600000000000       -4.41600000000000       -8.15000000000000
 H           6.33100000000000       -5.60100000000000       -8.27900000000000
 H           5.45300000000000       -7.07700000000000       -8.61400000000000
 N           6.28800000000000       -4.72700000000000      -10.71200000000000
 C           6.17800000000000       -4.25200000000000      -12.08800000000000
 C           5.81800000000000       -2.78400000000000      -12.10400000000000
 O           4.86300000000000       -2.43600000000000      -11.44000000000000
 H           6.79400000000000       -4.10500000000000      -10.08000000000000
 H           7.12100000000000       -4.43900000000000      -12.60600000000000
 H           5.39500000000000       -4.82600000000000      -12.57200000000000
 N           6.51400000000000       -1.84100000000000      -12.84400000000000
 C           7.76000000000000       -2.02200000000000      -13.57400000000000
 C           8.17300000000000       -0.77200000000000      -14.26100000000000
 O           7.56800000000000        0.25900000000000      -14.06100000000000
 H           6.22200000000000       -0.86200000000000      -12.79700000000000
 H           8.53900000000000       -2.34700000000000      -12.87300000000000
 H           7.62000000000000       -2.82700000000000      -14.31400000000000
 N           9.25400000000000       -0.82800000000000      -15.10600000000000
 C           9.74000000000000        0.36300000000000      -15.76300000000000
 C          10.87500000000000        0.00000000000000      -16.71200000000000
 C          10.18700000000000        1.41200000000000      -14.75800000000000
 O          11.53700000000000       -0.98900000000000      -16.41700000000000
 O          11.03700000000000        0.74300000000000      -17.67500000000000
 H           9.86400000000000       -1.65100000000000      -15.17600000000000
 H           8.90100000000000        0.75500000000000      -16.36100000000000
 H          11.00300000000000        1.02000000000000      -14.14800000000000
 H          10.54000000000000        2.31700000000000      -15.25700000000000
 H           9.36400000000000        1.67700000000000      -14.08900000000000
34
 energy: -5.984056882824 gnorm: 0.027891699087 xtb: 6.6.1 (8d0f1dd)
 C           3.16080509690713       -6.09226275026065       -7.57053498574988
 O           2.22673911208891       -5.47141031549471       -7.11849071746111
 N           4.24864124453379       -5.42531691299856       -8.07775849074821
 C           5.42446159547393       -5.99029212430533       -8.74654854340656
 C           5.41823378092773       -5.68137773904279      -10.22214495734795
 O           4.64253158821341       -6.27195867775508      -10.94292259690357
 H           4.19030130121692       -4.41293437126340       -8.15422417132009
 H           6.33071837061733       -5.60052753365810       -8.27909423926170
 H           5.44889212305573       -7.07649514057646       -8.61511309583949
 N           6.28803259989095       -4.72631076398908      -10.71166094961769
 C           6.17960775083828       -4.24808166941513      -12.08444939916389
 C           5.81745943459916       -2.78365583143047      -12.10463827246108
 O           4.86313495909086       -2.43491194807409      -11.44014335108706
 H           6.79416295248642       -4.10460721869882      -10.07950632093681
 H           7.12122546773141       -4.43843671162230      -12.60547439037442
 H           5.39388598238085       -4.82528418737022      -12.57256890879497
 N           6.51399025349886       -1.84200619283425      -12.84536678660599
 C           7.76115451175095       -2.02843590496609      -13.57588179921837
 C           8.17323952054799       -0.77342298197307      -14.26102541517451
 O           7.56742467797375        0.25712253839320      -14.05951327999475
 H           6.22340849412326       -0.86255653900792      -12.79941856092196
 H           8.53830910091759       -2.35126459584270      -12.87444634089716
 H           7.62011271689089       -2.82822141044801      -14.31366379470525
 N           9.25408425092743       -0.82758238461776      -15.10600925709661
 C           9.74028221425907        0.36488432626092      -15.76241881479422
 C          10.87503372286426        0.00074873060492      -16.71178557760445
 C          10.18732285856182        1.41233370330503      -14.75753781778921
 O          11.53726524692214       -0.98866671211766      -16.41673710905035
 O          11.03696301425884        0.74371738104928      -17.67482417343625
 H           9.86402540212867       -1.65059635183349      -15.17643109746571
 H           8.90094904170068        0.75579138497526      -16.36071391825623
 H          11.00310854782047        1.02027843540539      -14.14780428885232
 H          10.54026745065476        2.31744775419185      -15.25648319973140
 H           9.36422561414574        1.67729271541032      -14.08866537793080
34
 energy: -5.984654464535 gnorm: 0.011211201179 xtb: 6.6.1 (8d0f1dd)
 C           3.17100965510136       -6.08008472042076       -7.55896780583423
 O           2.22130307651255       -5.48049157082535       -7.12500957023194
 N           4.24558904689015       -5.42499421050238       -8.07808428653766
 C           5.42306351794287       -5.99341591976385       -8.74910540785987
 C           5.41810036628083       -5.68150357281789      -10.22209930641760
 O           4.64210081969568       -6.27176851718778      -10.94312447829755
 H           4.19053208490997       -4.41193889934493       -8.15442767352171
 H           6.33087090091235       -5.60122665885120       -8.27939005022540
 H           5.44749519654148       -7.07751743524940       -8.61635207400921
 N           6.28816624655214       -4.72677343343867      -10.71190192117183
 C           6.18095139419596       -4.24529397649639      -12.08138702221534
 C           5.81716162347736       -2.78364721598100      -12.10477603438483
 O           4.86312747333734       -2.43471855535563      -11.43999426474004
 H           6.79454549461027       -4.10511962571891      -10.07966875790787
 H           7.12042398326789       -4.43903815776790      -12.60634086519958
 H           5.39351269038534       -4.82514143924451      -12.57271239541859
 N           6.51339994302158       -1.84206187972294      -12.84600672843645
 C           7.76240168686486       -2.03223553317408      -13.57737398830480
 C           8.17337100109459       -0.77304832061075      -14.26134014423839
 O           7.56751867727446        0.25745320879726      -14.05968718521407
 H           6.22282330043714       -0.86260555598761      -12.80035383404544
 H           8.53812801933610       -2.35104973133502      -12.87459562967502
 H           7.62115016168972       -2.82792083920619      -14.31360245075519
 N           9.25391033264678       -0.82726847505001      -15.10598389257697
 C           9.74041707952590        0.36600352048618      -15.76194559541692
 C          10.87498880905949        0.00089862229711      -16.71163441831471
 C          10.18747145317163        1.41219445153343      -14.75729379810227
 O          11.53745079272583       -0.98869336209844      -16.41653860017528
 O          11.03678528628674        0.74380319176519      -17.67476953715082
 H           9.86368310036988       -1.65048314873259      -15.17649320079786
 H           8.90084910955490        0.75575965447350      -16.36066910179078
 H          11.00313606778725        1.02023914577055      -14.14763598997413
 H          10.54031912964759        2.31746358426032      -15.25623847236096
 H           9.36424247889198        1.67722537550066      -14.08849551869669
34
 energy: -5.984804187698 gnorm: 0.008841097089 xtb: 6.6.1 (8d0f1dd)
 C           3.17444236945058       -6.07460182418000       -7.55228486017387
 O           2.21451110039392       -5.48400212635629       -7.13295210848577
 N           4.24594533524827       -5.42577505241319       -8.07836915408402
 C           5.42375747210590       -5.99459454808661       -8.74972518869564
 C           5.41831843362493       -5.68156911652788      -10.22190399264185
 O           4.64191877525317       -6.27173350067121      -10.94280662396577
 H           4.19309793790038       -4.41225559554744       -8.15259899272903
 H           6.33113974885739       -5.60163830059811       -8.27945265719931
 H           5.44774317246951       -7.07800780604473       -8.61645690984756
 N           6.28817845396690       -4.72720553992370      -10.71215310768672
 C           6.18113432073350       -4.24496815459401      -12.08076184825103
 C           5.81728359997307       -2.78365590986366      -12.10451055262097
 O           4.86325331428165       -2.43477677573605      -11.43970516999655
 H           6.79466246789542       -4.10543888567045      -10.07985522833643
 H           7.11971223795531       -4.43945536792801      -12.60710714875109
 H           5.39374312086374       -4.82534109027026      -12.57255264876325
 N           6.51301594271159       -1.84152833984678      -12.84566971484062
 C           7.76272218817425       -2.03241081003745      -13.57745942065740
 C           8.17321779420108       -0.77228460262842      -14.26138911858231
 O           7.56779605347366        0.25839794257430      -14.06016188766339
 H           6.22194179397238       -0.86227007726787      -12.79963030961087
 H           8.53821030072978       -2.34899372824910      -12.87362092384184
 H           7.62145378204684       -2.82754352931452      -14.31383527622608
 N           9.25367012024600       -0.82737953480655      -15.10610335201147
 C           9.74035451501817        0.36594619583543      -15.76191167115987
 C          10.87477074155881        0.00067740498878      -16.71186749948527
 C          10.18770390517363        1.41183833443074      -14.75734078808206
 O          11.53714636396960       -0.98900362998330      -16.41699270103489
 O          11.03650943825023        0.74367274439328      -17.67496679172154
 H           9.86338239482088       -1.65069710015850      -15.17678902808078
 H           8.90076601776014        0.75565425629146      -16.36065073438736
 H          11.00339745945476        1.01979463491704      -14.14778400040036
 H          10.54053127924493        2.31718012441575      -15.25624689698765
 H           9.36456804821960        1.67696930885729      -14.08838369299734
34
 energy: -5.984878983686 gnorm: 0.004044753816 xtb: 6.6.1 (8d0f1dd)
 C           3.17682874775095       -6.07097865878076       -7.54645913019317
 O           2.20684376289074       -5.48695821586960       -7.14251200886377
 N           4.24793740111047       -5.42651311800833       -8.07782771084735
 C           5.42474344381040       -5.99488873818009       -8.74971149043335
 C           5.41844201256161       -5.68153903430623      -10.22172156519443
 O           4.64166668241759       -6.27155076288851      -10.94247774358513
 H           4.19613176178578       -4.41259507460089       -8.15017801403925
 H           6.33154602434424       -5.60222996312497       -8.27962286762482
 H           5.44787821025695       -7.07827688592988       -8.61647567294773
 N           6.28815111166470       -4.72749489538683      -10.71232355267217
 C           6.18094902288601       -4.24542868495337      -12.08100430961025
 C           5.81760762654213       -2.78363356319596      -12.10411805182679
 O           4.86355352482246       -2.43478792328896      -11.43928769378151
 H           6.79476249231005       -4.10566502943995      -10.07996350161734
 H           7.11929861826936       -4.43965988608534      -12.60754086064733
 H           5.39404459067887       -4.82554386824535      -12.57234412920929
 N           6.51285078222267       -1.84081803736200      -12.84496595091236
 C           7.76267275953702       -2.03159809494380      -13.57709027569318
 C           8.17289711854599       -0.77160105357453      -14.26131450889467
 O           7.56795366395296        0.25929044251492      -14.06059943205000
 H           6.22131292389050       -0.86177227527461      -12.79824323757017
 H           8.53829943893878       -2.34671444709639      -12.87237578050125
 H           7.62120962595638       -2.82723307050682      -14.31412954336071
 N           9.25344947345535       -0.82763352618861      -15.10629205681885
 C           9.74026786255832        0.36552474995046      -15.76208587442460
 C          10.87454896045049        0.00035290724988      -16.71223415056788
 C          10.18791925040338        1.41148347329951      -14.75753177118367
 O          11.53675515822709       -0.98938333317623      -16.41760004577283
 O          11.03625098816980        0.74344133206396      -17.67527951909080
 H           9.86316530273807       -1.65098482402215      -15.17715399855428
 H           8.90071181125449        0.75555113283000      -16.36067642274588
 H          11.00367094564588        1.01930512476832      -14.14807604113666
 H          10.54075107216891        2.31684326968063      -15.25639894252076
 H           9.36492782778162        1.67669053207249      -14.08838414510777
34
 energy: -5.984889510778 gnorm: 0.001751973195 xtb: 6.6.1 (8d0f1dd)
 C           3.17727471903003       -6.07083278978513       -7.54541501263844
 O           2.20496654652166       -5.48778216272422       -7.14529330627477
 N           4.24930864264798       -5.42638295006229       -8.07680641002884
 C           5.42479534077659       -5.99453349876351       -8.74953836810671
 C           5.41830850507306       -5.68147000178685      -10.22174417581233
 O           4.64153420128559       -6.27140731868708      -10.94247567188055
 H           4.19666225137206       -4.41251912219653       -8.14965320430101
 H           6.33171826838432       -5.60257204320114       -8.27982057737521
 H           5.44768327665512       -7.07827147288982       -8.61660943333131
 N           6.28813149970510       -4.72742388390182      -10.71227790984580
 C           6.18076536829824       -4.24579468573480      -12.08141340913890
 C           5.81774987578884       -2.78360323160802      -12.10399993369329
 O           4.86370977601218       -2.43471691704420      -11.43912009205395
 H           6.79480089712540       -4.10565617963552      -10.07992682757793
 H           7.11945876642215       -4.43955819860745      -12.60735064912334
 H           5.39402568885625       -4.82548999851855      -12.57229079011308
 N           6.51300354423550       -1.84064147035688      -12.84467821443414
 C           7.76248045133038       -2.03114224565846      -13.57689999141162
 C           8.17275275944923       -0.77163305945722      -14.26128723437384
 O           7.56784314070815        0.25928210790742      -14.06066630241150
 H           6.22150556706359       -0.86160261334735      -12.79769559043326
 H           8.53828727856632       -2.34648241149292      -12.87223044538345
 H           7.62078084728554       -2.82719959590401      -14.31418460628574
 N           9.25344858072145       -0.82772166436872      -15.10634975855071
 C           9.74026684317567        0.36532257285990      -15.76221242490235
 C          10.87454891344311        0.00026873777431      -16.71232093913829
 C          10.18790974129502        1.41146454458019      -14.75762904410010
 O          11.53671917173858       -0.98945113200495      -16.41768642908990
 O          11.03625493707198        0.74334794344630      -17.67536502427182
 H           9.86320215647959       -1.65103749202102      -15.17718883252059
 H           8.90072795935055        0.75551829725707      -16.36071879810326
 H          11.00367668900859        1.01926832384311      -14.14817550196953
 H          10.54075273132270        2.31679169571344      -15.25650742420839
 H           9.36494506379950        1.67666191637674      -14.08846766711602
34
 energy: -5.984893124474 gnorm: 0.001174465759 xtb: 6.6.1 (8d0f1dd)
 C           3.17759570997321       -6.07119238958869       -7.54519097293068
 O           2.20411211477239       -5.48847697391992       -7.14687367788361
 N           4.25088594031539       -5.42584382792160       -8.07513656940518
 C           5.42446841222917       -5.99407401343576       -8.74945971972647
 C           5.41806413264597       -5.68136515893378      -10.22183467806054
 O           4.64143279722552       -6.27127939658497      -10.94253926920929
 H           4.19633921162161       -4.41229139967295       -8.14980851625260
 H           6.33186409143700       -5.60292011202112       -8.28006491658762
 H           5.44742226087161       -7.07822672096600       -8.61680852330885
 N           6.28812162192370       -4.72722817230178      -10.71214694910700
 C           6.18060273953193       -4.24606322268833      -12.08180708437881
 C           5.81782594404288       -2.78356550624843      -12.10394997999142
 O           4.86382966557178       -2.43460364711678      -11.43899381522354
 H           6.79484321817369       -4.10558300567490      -10.07984974477620
 H           7.11979048961114       -4.43937903423291      -12.60696895678464
 H           5.39386495268402       -4.82531898876584      -12.57226885755933
 N           6.51332369311554       -1.84062271368364      -12.84445457424079
 C           7.76225043745927       -2.03087513519132      -13.57684164882925
 C           8.17267547453792       -0.77192092131195      -14.26131791224111
 O           7.56766373725860        0.25896835615075      -14.06064534159315
 H           6.22207716679907       -0.86150605340830      -12.79730652470633
 H           8.53826701335054       -2.34705103486480      -12.87261233306564
 H           7.62016790239887       -2.82719090975178      -14.31418065833858
 N           9.25350935890458       -0.82773725639279      -15.10636659259750
 C           9.74028585856367        0.36522399076692      -15.76230928313910
 C          10.87458994401840        0.00027102107716      -16.71232731766937
 C          10.18783547937887        1.41154763227050      -14.75768292656040
 O          11.53677282481919       -0.98942167304155      -16.41762864953030
 O          11.03630642338318        0.74331320959777      -17.67538582708803
 H           9.86329247527935       -1.65100996887066      -15.17712005183359
 H           8.90074861414971        0.75551664926376      -16.36075618350251
 H          11.00360808072669        1.01936461501662      -14.14821321039595
 H          10.54069498757041        2.31682859505805      -15.25659217285864
 H           9.36486722565511        1.67671316738902      -14.08855656062391
34
 energy: -5.984887797977 gnorm: 0.003098793876 xtb: 6.6.1 (8d0f1dd)
 C           3.17792787180517       -6.07154272345394       -7.54496092563008
 O           2.20325082626880       -5.48918407844023       -7.14846153646867
 N           4.25248690851281       -5.42529118857317       -8.07343271205541
 C           5.42413104631222       -5.99361915232204       -8.74939144351212
 C           5.41781588343586       -5.68125771607311      -10.22192720946816
 O           4.64133079769677       -6.27115191974900      -10.94260266660953
 H           4.19599313906337       -4.41206138336370       -8.14998277609400
 H           6.33200847065119       -5.60326974692887       -8.28031132498194
 H           5.44716479851586       -7.07818230404967       -8.61700735971597
 N           6.28811114836236       -4.72702954648261      -10.71201400476194
 C           6.18044174433720       -4.24632619690103      -12.08219646875823
 C           5.81790062908761       -2.78352673237484      -12.10389966748660
 O           4.86394745971829       -2.43448963619815      -11.43886885135950
 H           6.79488530772339       -4.10550854983010      -10.07977212061664
 H           7.12012229883662       -4.43919916817607      -12.60658644915445
 H           5.39370192480420       -4.82514524200134      -12.57224614354809
 N           6.51365196010753       -1.84060700152915      -12.84422649385142
 C           7.76202075835627       -2.03061434361052      -13.57678820896977
 C           8.17260160348045       -0.77221542728479      -14.26135169677652
 O           7.56748494868282        0.25864742571258      -14.06062481932462
 H           6.22266260654837       -0.86141027162169      -12.79691517372127
 H           8.53825008580298       -2.34764600552368      -12.87301517248317
 H           7.61954589214625       -2.82718150733260      -14.31417575486629
 N           9.25357118785818       -0.82775047792384      -15.10638224088189
 C           9.74030434290153        0.36512921498712      -15.76240462330448
 C          10.87463067828500        0.00027587730107      -16.71233197514524
 C          10.18775939828378        1.41163311825980      -14.75773545134951
 O          11.53682710980756       -0.98938981375982      -16.41756864544497
 O          11.03635773730420        0.74328050889458      -17.67540528831768
 H           9.86338291904028       -1.65098048627970      -15.17704932766825
 H           8.90076841218249        0.75551583212385      -16.36079355047722
 H          11.00353758792729        1.01946403351352      -14.14824934322618
 H          10.54063547345066        2.31686801740131      -15.25667576685608
 H           9.36478704270260        1.67676659158986      -14.08864480711408
34
 energy: -5.984893139974 gnorm: 0.001164381260 xtb: 6.6.1 (8d0f1dd)
 C           3.17772969014976       -6.07127238749858       -7.54522569428581
 O           2.20406365637088       -5.48867236360673       -7.14704746454658
 N           4.25141802820453       -5.42556564883754       -8.07443016592867
 C           5.42425734761302       -5.99400633473005       -8.74953643859320
 C           5.41796362355495       -5.68132016766498      -10.22188157620288
 O           4.64140722560558       -6.27125747024103      -10.94257175522326
 H           4.19596700552295       -4.41220607546636       -8.15009330840154
 H           6.33186949110283       -5.60301411162801       -8.28014932989342
 H           5.44737889375522       -7.07822400985325       -8.61686497327508
 N           6.28811817329837       -4.72714763759906      -10.71209066370945
 C           6.18058417186477       -4.24605933265881      -12.08185348816869
 C           5.81781707489619       -2.78354948598746      -12.10394946209715
 O           4.86382883465249       -2.43457186114317      -11.43898695723327
 H           6.79485432073982       -4.10554947138681      -10.07981846929481
 H           7.11988721741507       -4.43932614401990      -12.60685359706250
 H           5.39379273292502       -4.82524347910495      -12.57226808989962
 N           6.51348422239677       -1.84066582277060      -12.84437678954765
 C           7.76220163916714       -2.03089825299083      -13.57688563764321
 C           8.17269725132616       -0.77207001917389      -14.26135868326876
 O           7.56761875764485        0.25880253704286      -14.06063796310280
 H           6.22236279727035       -0.86150057625831      -12.79723514757508
 H           8.53828866475579       -2.34749103110463      -12.87293466721856
 H           7.61995043379465       -2.82718863855309      -14.31415541875738
 N           9.25354108274047       -0.82770977852507      -15.10635264148007
 C           9.74028883276875        0.36524891231056      -15.76231399973543
 C          10.87460455602874        0.00030457280688      -16.71230019807539
 C          10.18779223577288        1.41159947952272      -14.75767921585357
 O          11.53680952726911       -0.98937841074172      -16.41756776812672
 O          11.03632528681267        0.74333027633572      -17.67536767099935
 H           9.86332277606917       -1.65097579452059      -15.17706810576713
 H           8.90074727060770        0.75552254322565      -16.36076609179280
 H          11.00356317927756        1.01943372838747      -14.14819717713878
 H          10.54065398648816        2.31686880249610      -15.25660346771228
 H           9.36481001213765        1.67675345393747      -14.08857792238908
34
 energy: -5.984893758117 gnorm: 0.000481145207 xtb: 6.6.1 (8d0f1dd)
 C           3.17754634444338       -6.07103993033635       -7.54545452257076
 O           2.20465554885252       -5.48829638559793       -7.14597652764732
 N           4.25067889918316       -5.42576178334312       -8.07512041139536
 C           5.42436513085118       -5.99434940248157       -8.74969879588599
 C           5.41808431875041       -5.68133917425167      -10.22183197792612
 O           4.64147650061699       -6.27134545597836      -10.94251101858885
 H           4.19585961581588       -4.41233284434398       -8.15023894443947
 H           6.33175194041216       -5.60277189652956       -8.27999129642327
 H           5.44757192276513       -7.07823523016303       -8.61672215842205
 N           6.28811647217027       -4.72724494145406      -10.71215938372402
 C           6.18070335283163       -4.24582310031491      -12.08154816128326
 C           5.81774408017147       -2.78355357194528      -12.10397790535432
 O           4.86370552085308       -2.43464242394427      -11.43910496191796
 H           6.79482031505317       -4.10557579408800      -10.07986926795764
 H           7.11965876505505       -4.43943472696577      -12.60710472343986
 H           5.39387904381516       -4.82534284592495      -12.57228528234565
 N           6.51339942528671       -1.84070713611149      -12.84442084766221
 C           7.76235688163651       -2.03114055280721      -13.57697019415389
 C           8.17279076524741       -0.77196322579987      -14.26137742256443
 O           7.56774176490216        0.25891972928804      -14.06067007106260
 H           6.22217554321537       -0.86156749086752      -12.79744620559349
 H           8.53838258409773       -2.34747074689305      -12.87296690163876
 H           7.62022843506762       -2.82719773587361      -14.31414251899659
 N           9.25351646116494       -0.82767160829398      -15.10632082540325
 C           9.74026538132169        0.36535746538351      -15.76223218145279
 C          10.87457322313637        0.00033403136645      -16.71227528446947
 C          10.18781532630521        1.41157574417068      -14.75763180764947
 O          11.53678191268575       -0.98936381534817      -16.41757605900307
 O          11.03629394045669        0.74338128958028      -17.67533382942792
 H           9.86326612588211       -1.65096980927909      -15.17709248690937
 H           8.90072256573027        0.75553481519124      -16.36074235154562
 H          11.00357933862823        1.01941281412088      -14.14815479060489
 H          10.54066464252851        2.31687896658248      -15.25653490791649
 H           9.36482791106608        1.67674677325324      -14.08851597462374
