      -----------------------------------------------------------      
     |                   =====================                   |     
     |                           x T B                           |     
     |                   =====================                   |     
     |                         S. Grimme                         |     
     |          Mulliken Center for Theoretical Chemistry        |     
     |                    University of Bonn                     |     
      -----------------------------------------------------------      

   * xtb version 6.6.1 (8d0f1dd) compiled by 'conda@1efc2f54142f' on 2023-08-01

   xtb is free software: you can redistribute it and/or modify it under
   the terms of the GNU Lesser General Public License as published by
   the Free Software Foundation, either version 3 of the License, or
   (at your option) any later version.
   
   xtb is distributed in the hope that it will be useful,
   but WITHOUT ANY WARRANTY; without even the implied warranty of
   MERCHANTABILITY or FITNESS FOR A PARTICULAR PURPOSE.  See the
   GNU Lesser General Public License for more details.
   
   Cite this work as:
   * C. Bannwarth, E. Caldeweyher, S. Ehlert, A. Hansen, P. Pracht,
     J. Seibert, S. Spicher, S. Grimme, WIREs Comput. Mol. Sci., 2020, 11,
     e01493. DOI: 10.1002/wcms.1493
   
   for GFN2-xTB:
   * C. Bannwarth, S. Ehlert and S. Grimme., J. Chem. Theory Comput., 2019,
     15, 1652-1671. DOI: 10.1021/acs.jctc.8b01176
   for GFN1-xTB:
   * S. Grimme, C. Bannwarth, P. Shushkov, J. Chem. Theory Comput., 2017,
     13, 1989-2009. DOI: 10.1021/acs.jctc.7b00118
   for GFN0-xTB:
   * P. Pracht, E. Caldeweyher, S. Ehlert, S. Grimme, ChemRxiv, 2019, preprint.
     DOI: 10.26434/chemrxiv.8326202.v1
   for GFN-FF:
   * S. Spicher and S. Grimme, Angew. Chem. Int. Ed., 2020, 59, 15665-15673.
     DOI: 10.1002/anie.202004239
   
   for ALPB and GBSA implicit solvation:
   * S. Ehlert, M. Stahn, S. Spicher, S. Grimme, J. Chem. Theory Comput.,
     2021, 17, 4250-4261. DOI: 10.1021/acs.jctc.1c00471
   
   for DFT-D4:
   * E. Caldeweyher, C. Bannwarth and S. Grimme, J. Chem. Phys., 2017,
     147, 034112. DOI: 10.1063/1.4993215
   * E. Caldeweyher, S. Ehlert, A. Hansen, H. Neugebauer, S. Spicher,
     C. Bannwarth and S. Grimme, J. Chem. Phys., 2019, 150, 154122.
     DOI: 10.1063/1.5090222
   * E. Caldeweyher, J.-M. Mewes, S. Ehlert and S. Grimme, Phys. Chem. Chem. Phys.
     2020, 22, 8499-8512. DOI: 10.1039/D0CP00502A
   
   for sTDA-xTB:
   * S. Grimme and C. Bannwarth, J. Chem. Phys., 2016, 145, 054103.
     DOI: 10.1063/1.4959605
   
   in the mass-spec context:
   * V. Asgeirsson, C. Bauer and S. Grimme, Chem. Sci., 2017, 8, 4879.
     DOI: 10.1039/c7sc00601b
   * J. Koopman and S. Grimme, ACS Omega 2019, 4, 12, 15120-15133.
     DOI: 10.1021/acsomega.9b02011
   
   for metadynamics refer to:
   * S. Grimme, J. Chem. Theory Comput., 2019, 155, 2847-2862
     DOI: 10.1021/acs.jctc.9b00143
   
   for SPH calculations refer to:
   * S. Spicher and S. Grimme, J. Chem. Theory Comput., 2021, 17, 1701-1714
     DOI: 10.1021/acs.jctc.0c01306
   
   with help from (in alphabetical order)
   P. Atkinson, C. Bannwarth, F. Bohle, G. Brandenburg, E. Caldeweyher
   M. Checinski, S. Dohm, S. Ehlert, S. Ehrlich, I. Gerasimov, C. Hölzer
   A. Katbashev, J. Koopman, C. Lavigne, S. Lehtola, F. März, M. Müller,
   F. Musil, H. Neugebauer, J. Pisarek, C. Plett, P. Pracht, F. Pultar,
   J. Seibert, P. Shushkov, S. Spicher, M. Stahn, M. Steiner, T. Strunk,
   J. Stückrath, T. Rose, and J. Unsleber
   
 * started run on 2025/05/27 at 09:37:32.134     

           -------------------------------------------------
          |                Calculation Setup                |
           -------------------------------------------------

          program call               : xtb substructure_4.pdb --gfnff --input xtb_settings.inp --opt vtight --alpb water --verbose
          coordinate file            : substructure_4.pdb
          xtbhome directory          : /home/dargen3
          path for xtb               : /home/dargen3
          xcontrol input file        : xtb_settings.inp
          omp threads                :                     1

$$$$$$$$$$$$$$$$$$$$$$$$$$$$$$$$$$$$$$$$$$$$$$$$$$$$$$$$$$$$$$$$$$$$$$$$
 CONSTRAINTS & SCANS: DEBUG SECTION
$$$$$$$$$$$$$$$$$$$$$$$$$$$$$$$$$$$$$$$$$$$$$$$$$$$$$$$$$$$$$$$$$$$$$$$$
   ID    Z sym.   atoms
    1    6  C     1, 4, 5, 11, 12, 18-20
    2    8  O     2, 6, 13, 21, 22
    3    7  N     3, 10, 17
    4    1  H     7-9, 14-16, 23-27
> constrain
-> atoms: 1, 2, 3, 4, 5, 6, 7, 8, 9, 10, 11, 12, 13, 14, 15, 16, 18
--> 1: 1
--> 2: 2
--> 3: 3
--> 4: 4
--> 5: 5
--> 6: 6
--> 7: 7
--> 8: 8
--> 9: 9
--> 10: 10
--> 11: 11
--> 12: 12
--> 13: 13
--> 14: 14
--> 15: 15
--> 16: 16
--> 17: 18
-> force constant=1.0
$$$$$$$$$$$$$$$$$$$$$$$$$$$$$$$$$$$$$$$$$$$$$$$$$$$$$$$$$$$$$$$$$$$$$$$$
           -------------------------------------------------
          |                   Constraints                   |
           -------------------------------------------------

 * 17 constrained atom positions
   positions refering to input geometry

     #   Z                                   position/Å      displ./Å
     1   6 C      5.3040005    -5.6220005   -10.2010009     0.0000000
     2   8 O      4.4180004    -6.1040006   -10.8730010     0.0000000
     3   7 N      6.1800006    -4.7050004   -10.7070010     0.0000000
     4   6 C      6.1780006    -4.2520004   -12.0880011     0.0000000
     5   6 C      5.7760005    -2.7850003   -12.1760011     0.0000000
     6   8 O      4.7580004    -2.4510002   -11.6040011     0.0000000
     7   1 H      6.8070006    -4.1890004   -10.0880009     0.0000000
     8   1 H      7.1430007    -4.4320004   -12.5400012     0.0000000
     9   1 H      5.4270005    -4.8450004   -12.6220012     0.0000000
    10   7 N      6.4940006    -1.8470002   -12.8370012     0.0000000
    11   6 C      7.7600007    -2.0220002   -13.5740013     0.0000000
    12   6 C      7.9990007    -0.8930001   -14.5210013     0.0000000
    13   8 O      7.0860007    -0.3140000   -15.0690014     0.0000000
    14   1 H      6.1080006    -0.9090001   -12.9120012     0.0000000
    15   1 H      8.5670008    -2.1280002   -12.8650012     0.0000000
    16   1 H      7.6830007    -2.9510003   -14.1610013     0.0000000
    18   6 C      9.7400009     0.3630000   -15.7630015     0.0000000

     applying 136 atom pairwise harmonic potentials
       applied force constant per pair:     0.0625000
     effective force constant per atom:     1.0000000
         constraining energy/grad norm:     0.0000000     0.0000000

     total constraint energy/grad norm:     0.0000000     0.0000000

          charge from pdb residues: 0

          entering GFN-FF setup routine... 27

          ==================== Thresholds ====================
          CN  :   150.00000
          rep :   500.00000
          disp:  2500.00000
          HB1 :   250.00000
          HB2 :   450.00000

          Pauling EN used:
          Z : 1  EN :  2.20
          Z : 6  EN :  2.55
          Z : 7  EN :  3.04
          Z : 8  EN :  3.44
          electric field strengths (au): 0.000

           ------------------------------------------------- 
          |           Force Field Initialization            |
           ------------------------------------------------- 

          distances ...
          ----------------------------------------
          generating topology and atomic info file ...
          pair mat ...
          computing topology distances matrix with Floyd-Warshall algo ...
          making topology EEQ charges ...
          #fragments for EEQ constrain from pdb file: 4
          ----------------------------------------
          generating topology and atomic info file ...
          pair mat ...
          computing topology distances matrix with Floyd-Warshall algo ...
          making topology EEQ charges ...
          #fragments for EEQ constrain from pdb file: 4
          rings ...
          # BATM   212
          # H in HB   11
          doing iterative Hueckel for 4 subsystem(s) ...
          iterative Hueckel run to get P ...
Hueckel system :  1 charge :   0 ndim/Nel :    3    3   eps(HOMO/LUMO)   -0.954392   -0.954392
Hueckel system :  2 charge :   0 ndim/Nel :    3    4   eps(HOMO/LUMO)   -0.913580   -0.913580
Hueckel system :  3 charge :   0 ndim/Nel :    3    4   eps(HOMO/LUMO)   -0.920785   -0.920785
Hueckel system :  4 charge :   0 ndim/Nel :    3    3   eps(HOMO/LUMO)   -0.818326   -0.818326

  atom   neighbors  erfCN metchar sp-hybrid imet pi  qest     coordinates
    1   C      2    1.93   0.00        -2    0    1   0.120   10.023107  -10.624040  -19.277096
    2   O      1    0.98   0.00         2    0    1  -0.120    8.348810  -11.534888  -20.546992
    3   N      3    2.79   0.00        -3    0    1  -0.164   11.678507   -8.891161  -20.233298
    4   C      4    3.49   0.00         3    0    0   0.003   11.674728   -8.035115  -22.843009
    5   C      3    2.79   0.00         2    0    1   0.172   10.915058   -5.262887  -23.009305
    6   O      1    0.99   0.00         2    0    1  -0.352    8.991317   -4.631719  -21.928382
    7   H      1    0.98   0.00         0    0    0   0.153   12.863366   -7.916063  -19.063557
    8   H      1    0.97   0.00         0    0    0   0.094   13.498314   -8.375266  -23.697166
    9   H      1    0.97   0.00         0    0    0   0.094   10.255544   -9.155723  -23.852123
   10   N      3    2.79   0.00        -3    0    1  -0.164   12.271881   -3.490324  -24.258414
   11   C      4    3.49   0.00         3    0    0   0.004   14.664275   -3.821026  -25.651142
   12   C      3    2.79   0.00         2    0    1   0.168   15.115919   -1.687525  -27.440713
   13   O      1    0.98   0.00         2    0    1  -0.351   13.390599   -0.593374  -28.476283
   14   H      1    0.98   0.00         0    0    0   0.153   11.542447   -1.717761  -24.400144
   15   H      1    0.97   0.00         0    0    0   0.094   16.189284   -4.021337  -24.311327
   16   H      1    0.97   0.01         0    0    0   0.094   14.518766   -5.576582  -26.760412
   17   N      3    2.80   0.00        -3    0    1  -0.149   17.527210   -0.808803  -27.667480
   18   C      4    3.49   0.00         3    0    0   0.036   18.405932    0.685971  -29.787753
   19   C      3    2.79   0.00         2    0    1   0.266   21.268868    0.806913  -29.831217
   20   C      4    3.49   0.00         3    0    0  -0.062   17.251310    3.327808  -29.710274
   21   O      1    0.98   0.00         2    0    1  -0.330   22.363019    0.377945  -27.833776
   22   O      1    0.98   0.00         2    0    1  -0.330   22.236407    1.349264  -31.870231
   23   H      1    0.98   0.00         0    0    0   0.160   18.950174   -1.421074  -26.497740
   24   H      1    0.97   0.01         0    0    0   0.103   17.755867   -0.287238  -31.513073
   25   H      1    0.97   0.00         0    0    0   0.102   17.822007    4.293458  -27.979285
   26   H      1    0.97   0.00         0    0    0   0.102   17.876809    4.463533  -31.316541
   27   H      1    0.97   0.00         0    0    0   0.102   15.189619    3.223873  -29.732951

molecular fragment  # atoms  topo charge
       1             2            -0.000
       2             7             0.000
       3             7            -0.000
       4            11            -0.000


          #atoms :   27
          #bonds :   26

 bond atoms        type  in ring    R      R0    piBO    fqq  kbond(tot)  alp
 O  C     2    1      2    0     1.212   0.995   0.798   1.047  -0.252   0.584
 N  C     3    1      2    0     1.365   1.214   0.504   1.047  -0.235   0.524
 C  N     4    3      1    0     1.453   1.326 -99.000   1.030  -0.151   0.496
 C  C     5    4      1    0     1.524   1.332 -99.000   1.017  -0.163   0.475
 O  C     6    5      2    0     1.214   1.031   0.856   1.047  -0.262   0.584
 H  N     7    3      1    0     1.021   0.890 -99.000   1.047  -0.176   0.551
 H  C     8    4      1    0     1.081   0.976 -99.000   1.020  -0.164   0.482
 H  C     9    4      1    0     1.096   0.976 -99.000   1.020  -0.164   0.482
 N  C    10    5      2    0     1.354   1.263   0.503   1.047  -0.234   0.524
 C  N    11   10      1    0     1.475   1.326 -99.000   1.032  -0.151   0.496
 C  C    12   11      1    0     1.493   1.332 -99.000   1.015  -0.163   0.475
 O  C    13   12      2    0     1.212   1.031   0.857   1.047  -0.262   0.584
 H  N    14   10      1    0     1.017   0.890 -99.000   1.047  -0.176   0.551
 H  C    15   11      1    0     1.079   0.976 -99.000   1.018  -0.164   0.482
 H  C    16   11      1    0     1.102   0.976 -99.000   1.018  -0.164   0.482
 N  C    17   12      2    0     1.363   1.263   0.502   1.047  -0.234   0.524
 C  N    18   17      1    0     1.449   1.326 -99.000   1.047  -0.153   0.496
 C  C    19   18      1    0     1.516   1.332 -99.000   1.000  -0.160   0.475
 C  C    20   18      1    0     1.526   1.371 -99.000   1.043  -0.155   0.468
 O  C    21   19      2    0     1.226   1.058   0.703   1.047  -0.236   0.584
 O  C    22   19      2    0     1.228   1.058   0.703   1.047  -0.236   0.584
 H  N    23   17      1    0     1.027   0.890 -99.000   1.047  -0.176   0.551
 H  C    24   18      1    0     1.103   0.976 -99.000   1.001  -0.161   0.482
 H  C    25   20      1    0     1.091   0.976 -99.000   1.047  -0.169   0.482
 H  C    26   20      1    0     1.092   0.976 -99.000   1.047  -0.169   0.482
 H  C    27   20      1    0     1.092   0.976 -99.000   1.047  -0.169   0.482
          #angl  :   43

 angle atoms        phi0    phi      FC  pi rings
    1    3    2   145.000 122.048   0.082 F   0
    3    4    1   115.000 124.095   0.411 F   0
    3    7    1   115.000 120.578   0.335 F   0
    3    7    4   104.000 114.795   0.182 F   0
    4    5    3   109.500 110.814   0.307 F   0
    4    8    3   109.500 110.137   0.253 F   0
    4    8    5   109.500 111.827   0.251 F   0
    4    9    3   109.500 107.176   0.253 F   0
    4    9    5   109.500 108.184   0.251 F   0
    4    9    8   108.600 108.543   0.209 F   0
    5    6    4   120.000 117.305   0.178 F   0
    5   10    4   120.000 123.742   0.243 F   0
    5   10    6   120.000 118.948   0.177 F   0
   10   11    5   115.000 128.091   0.409 F   0
   10   14    5   115.000 118.280   0.334 F   0
   10   14   11   104.000 113.468   0.182 F   0
   11   12   10   109.500 111.381   0.307 F   0
   11   15   10   109.500 108.970   0.253 F   0
   11   15   12   109.500 111.792   0.251 F   0
   11   16   10   109.500 107.833   0.253 F   0
   11   16   12   109.500 108.116   0.251 F   0
   11   16   15   108.600 108.629   0.209 F   0
   12   13   11   120.000 121.835   0.178 F   0
   12   17   11   120.000 117.620   0.243 F   0
   12   17   13   120.000 120.150   0.177 F   0
   17   18   12   115.000 123.678   0.409 F   0
   17   23   12   115.000 121.699   0.334 F   0
   17   23   18   104.000 113.793   0.181 F   0
   18   19   17   109.500 110.810   0.307 F   0
   18   20   17   109.500 110.527   0.305 F   0
   18   20   19   109.500 111.203   0.305 F   0
   18   24   17   109.500 106.609   0.253 F   0
   18   24   19   109.500 108.581   0.253 F   0
   18   24   20   109.500 108.965   0.251 F   0
   19   21   18   120.000 116.793   0.176 F   0
   19   22   18   120.000 116.078   0.176 F   0
   19   22   21   122.000 127.126   0.252 F   0
   20   25   18   109.500 109.914   0.250 F   0
   20   26   18   109.500 111.207   0.250 F   0
   20   26   25   108.600 108.156   0.207 F   0
   20   27   18   109.500 110.695   0.250 F   0
   20   27   25   108.600 108.005   0.207 F   0
   20   27   26   108.600 108.769   0.207 F   0
 torsion atoms        nrot   rings    phi0    phi      FC
    3    1    4    2   2      0     180.000   2.289   0.763
    3    1    7    2   2      0     180.000 168.902   1.132
    4    3    5    1   3      0     180.000 112.769   0.023
    4    3    5    7   3      0     180.000  58.880   0.032
    4    3    8    1   3      0     180.000 122.963   0.033
    4    3    8    7   3      0     180.000  65.387   0.045
    4    3    9    1   3      0     180.000   5.067   0.033
    4    3    9    7   3      0     180.000 176.716   0.045
    5    4    6    3   3      0     180.000  50.916   0.065
    5    4    6    8   3      0     180.000 174.215   0.114
    5    4    6    9   3      0     180.000  66.304   0.114
    5    4   10    3   3      0     180.000 128.312   0.041
    5    4   10    8   3      0     180.000   5.013   0.072
    5    4   10    9   3      0     180.000 114.468   0.072
   10    5   11    4   2      0     180.000   0.327   0.608
   10    5   11    6   2      0     180.000 178.889   0.824
   10    5   14    4   2      0     180.000 174.726   0.902
   10    5   14    6   2      0     180.000   6.058   1.222
   11   10   12    5   3      0     180.000 161.221   0.022
   11   10   12   14   3      0     180.000  14.030   0.032
   11   10   15    5   3      0     180.000  74.989   0.032
   11   10   15   14   3      0     180.000 109.760   0.045
   11   10   16    5   3      0     180.000  42.749   0.032
   11   10   16   14   3      0     180.000 132.503   0.045
   12   11   13   10   3      0     180.000  32.189   0.066
   12   11   13   15   3      0     180.000 154.364   0.115
   12   11   13   16   3      0     180.000  86.113   0.115
   12   11   17   10   3      0     180.000 140.608   0.041
   12   11   17   15   3      0     180.000  18.433   0.072
   12   11   17   16   3      0     180.000 101.090   0.072
   17   12   18   11   2      0     180.000 161.219   0.589
   17   12   18   13   2      0     180.000  25.858   0.798
   17   12   23   11   2      0     180.000   7.699   0.873
   17   12   23   13   2      0     180.000 165.224   1.184
   18   17   19   12   3      0     180.000 165.674   0.023
   18   17   19   23   3      0     180.000   4.030   0.032
   18   17   20   12   3      0     180.000  70.583   0.022
   18   17   20   23   3      0     180.000 119.713   0.031
   18   17   24   12   3      0     180.000  47.699   0.032
   18   17   24   23   3      0     180.000 122.005   0.046
   19   18   21   17   3      0     180.000  21.401   0.054
   19   18   21   20   3      0     180.000 101.953   0.064
   19   18   21   24   3      0     180.000 138.168   0.095
   19   18   22   17   3      0     180.000 159.237   0.054
   19   18   22   20   3      0     180.000  77.409   0.064
   19   18   22   24   3      0     180.000  42.470   0.095
   20   18   25   17   3      0     180.000  61.154   0.120
   20   18   25   19   3      0     180.000  62.362   0.148
   20   18   25   24   3      0     180.000 177.987   0.210
   20   18   26   17   3      0     180.000 179.107   0.120
   20   18   26   19   3      0     180.000  57.378   0.148
   20   18   26   24   3      0     180.000  62.273   0.210
   20   18   27   17   3      0     180.000  58.075   0.120
   20   18   27   19   3      0     180.000 178.410   0.148
   20   18   27   24   3      0     180.000  58.759   0.210
 out-of-plane atoms          phi0    phi      FC
    3    7    1    4          0.000   7.286   0.140
    5    6   10    4          0.000   0.651  23.801
   10   14    5   11          0.000   3.892   0.143
   12   13   17   11          0.000   6.266  23.557
   17   23   12   18          0.000  -9.204   0.201
   19   21   22   18          0.000  -0.641  27.630
          #tors  :   61
          #nmol  :   4
          #optfrag :   4

 GFN-FF setup done.

           ------------------------------------------------- 
          |                   G F N - F F                   |
          |          A general generic force-field          |
          |                  Version 1.0.3                  | 
           ------------------------------------------------- 
      * Solvation model:               ALPB
        Solvent                        water
        Parameter file                 internal GFN-FF/ALPB
        Dielectric constant                8.0200E+01
        Reference state                gsolv [1 M gas/solution]
        Free energy shift                  3.6494E-04 Eh       2.2900E-01 kcal/mol
        Temperature                        2.9815E+02 K
        Density                            1.0000E+00 kg/L
        Solvent mass                       1.8000E+01 g/mol
        Interaction kernel             P16
        Born radius scaling (c1)           1.5056E+00
        Born radii integrator          GBOBC
        Born offset                        0.0000E+00 a0       0.0000E+00 AA
        H-bond correction              true
        Ion screening                  false
        Surface tension                    1.0000E-05 Eh       1.5569E+01 dyn/cm
        Grid points                               230 per atom
          Number of HB bonds (bound hydrogen)     190
          Number of HB bonds (unbound hydrogen)   19
          Number of XB bonds                      0

 E+G (total)                   0 d,  0 h,  0 min,  0.000 sec
 distance/D3 list               ...        0 min,  0.000 sec (  0.317%)
 non bonded repulsion           ...        0 min,  0.000 sec (  1.937%)
 dCN                            ...        0 min,  0.000 sec (  2.612%)
 EEQ energy and q               ...        0 min,  0.000 sec (  4.107%)
 D3                             ...        0 min,  0.000 sec (  6.861%)
 EEQ gradient                   ...        0 min,  0.000 sec (  4.170%)
 bonds                          ...        0 min,  0.000 sec (  1.121%)
 bend and torsion               ...        0 min,  0.000 sec (  4.406%)
 bonded ATM                     ...        0 min,  0.000 sec (  1.803%)
 HB/XB (incl list setup)        ...        0 min,  0.000 sec (  6.498%)
 GBSA                           ...        0 min,  0.000 sec ( 67.767%)

         :::::::::::::::::::::::::::::::::::::::::::::::::::::
         ::                     SUMMARY                     ::
         :::::::::::::::::::::::::::::::::::::::::::::::::::::
         :: total energy              -4.713397435227 Eh    ::
         :: total w/o Gsolv           -4.679990192177 Eh    ::
         :: total w/o Gsasa/hb        -4.712689407425 Eh    ::
         :: gradient norm              0.081185158324 Eh/a0 ::
         ::.................................................::
         :: bond energy               -4.706165848621 Eh    ::
         :: angle energy               0.020963461428 Eh    ::
         :: torsion energy             0.007918888123 Eh    ::
         :: repulsion energy           0.313599871339 Eh    ::
         :: electrostat energy        -0.291923673150 Eh    ::
         :: dispersion energy         -0.017377215984 Eh    ::
         :: HB energy                 -0.000650727098 Eh    ::
         :: XB energy                  0.000000000000 Eh    ::
         :: bonded atm energy         -0.006354948215 Eh    ::
         :: external energy            0.000000000000 Eh    ::
         :: -> Gsolv                  -0.033407243049 Eh    ::
         ::    -> Gborn               -0.032699215248 Eh    ::
         ::    -> Gsasa                0.011302983862 Eh    ::
         ::    -> Ghb                 -0.012375950918 Eh    ::
         ::    -> Gshift               0.000364939255 Eh    ::
         :: add. restraining           0.000000000000 Eh    ::
         :: total charge               0.000000000000 e     ::
         ::.................................................::
         :: atomisation energy         0.000000000000 Eh    ::
         :::::::::::::::::::::::::::::::::::::::::::::::::::::

      ----------------------------------------------------------- 
     |                   =====================                   |
     |                        A N C O P T                        |
     |                   =====================                   |
     |               Approximate Normal Coordinate               |
     |                Rational Function Optimizer                |
      ----------------------------------------------------------- 

          ...................................................
          :                      SETUP                      :
          :.................................................:
          :   optimization level         verytight          :
          :   max. optcycles                    10          :
          :   ANC micro-cycles                  10          :
          :   degrees of freedom                75          :
          :.................................................:
          :   RF solver                   davidson          :
          :   write xtbopt.log                true          :
          :   linear?                        false          :
          :   energy convergence         0.1000000E-06 Eh   :
          :   grad. convergence          0.2000000E-03 Eh/α :
          :   maxmium RF displ.          1.0000000          :
          :   Hlow (freq-cutoff)         0.1000000E-01      :
          :   Hmax (freq-cutoff)         5.0000000          :
          :   S6 in model hess.         20.0000000          :
          ...................................................

generating ANC from model Hessian ...
Using GFN-FF Lindh-Hessian
 Shifting diagonal of input Hessian by    7.8236374959662139E-003
 Lowest  eigenvalues of input Hessian
    0.000000    0.000000    0.000000    0.000000    0.000000    0.000000
    0.010000    0.013183    0.015396    0.025094    0.026328    0.032401
    0.041573    0.061275    0.063103    0.105475    0.108777    0.127906
 Highest eigenvalues
    3.249098    3.490470    3.600460    3.877168    4.015105    4.136070


........................................................................
.............................. CYCLE    1 ..............................
........................................................................
     iter. time                 ...        0 min,  0.000 sec
 * total energy  :    -4.7133974 Eh     change        0.0000000E+00 Eh
   gradient norm :     0.0811852 Eh/α   predicted     0.0000000E+00 (    NaN%)
   displ. norm   :     0.0902030 α      lambda       -0.3466509E-02
   maximum displ.:     0.0487501 α      in ANC's #3, #2, #16, ...

........................................................................
.............................. CYCLE    2 ..............................
........................................................................
     iter. time                 ...        0 min,  0.000 sec
 * total energy  :    -4.7159319 Eh     change       -0.2534482E-02 Eh
   gradient norm :     0.0371157 Eh/α   predicted    -0.1749696E-02 ( -30.96%)
   displ. norm   :     0.1403340 α      lambda       -0.1798090E-02
   maximum displ.:     0.0916447 α      in ANC's #2, #3, #1, ...

........................................................................
.............................. CYCLE    3 ..............................
........................................................................
     iter. time                 ...        0 min,  0.000 sec
 * total energy  :    -4.7169779 Eh     change       -0.1045974E-02 Eh
   gradient norm :     0.0127238 Eh/α   predicted    -0.9167809E-03 ( -12.35%)
   displ. norm   :     0.1165697 α      lambda       -0.2974118E-03
   maximum displ.:     0.0938373 α      in ANC's #2, #1, #7, ...

........................................................................
.............................. CYCLE    4 ..............................
........................................................................
     iter. time                 ...        0 min,  0.000 sec
 * total energy  :    -4.7172244 Eh     change       -0.2465196E-03 Eh
   gradient norm :     0.0112940 Eh/α   predicted    -0.1507280E-03 ( -38.86%)
   displ. norm   :     0.3233662 α      lambda       -0.6247396E-03
   maximum displ.:     0.2639109 α      in ANC's #2, #1, #7, ...

........................................................................
.............................. CYCLE    5 ..............................
........................................................................
     iter. time                 ...        0 min,  0.000 sec
 * total energy  :    -4.7176510 Eh     change       -0.4266127E-03 Eh
   gradient norm :     0.0117816 Eh/α   predicted    -0.3450452E-03 ( -19.12%)
   displ. norm   :     0.2420331 α      lambda       -0.2994974E-03
   maximum displ.:     0.1923882 α      in ANC's #2, #1, #7, ...

........................................................................
.............................. CYCLE    6 ..............................
........................................................................
     iter. time                 ...        0 min,  0.000 sec
 * total energy  :    -4.7178786 Eh     change       -0.2275455E-03 Eh
   gradient norm :     0.0115845 Eh/α   predicted    -0.1585687E-03 ( -30.31%)
   displ. norm   :     0.2382422 α      lambda       -0.2707248E-03
   maximum displ.:     0.1778578 α      in ANC's #2, #1, #3, ...

........................................................................
.............................. CYCLE    7 ..............................
........................................................................
     iter. time                 ...        0 min,  0.000 sec
 * total energy  :    -4.7180737 Eh     change       -0.1951730E-03 Eh
   gradient norm :     0.0090315 Eh/α   predicted    -0.1430686E-03 ( -26.70%)
   displ. norm   :     0.1977664 α      lambda       -0.1565201E-03
   maximum displ.:     0.1408958 α      in ANC's #2, #1, #3, ...

........................................................................
.............................. CYCLE    8 ..............................
........................................................................
     iter. time                 ...        0 min,  0.000 sec
 * total energy  :    -4.7181815 Eh     change       -0.1077180E-03 Eh
   gradient norm :     0.0068139 Eh/α   predicted    -0.8132210E-04 ( -24.50%)
   displ. norm   :     0.1250762 α      lambda       -0.7291218E-04
   maximum displ.:     0.0863930 α      in ANC's #2, #1, #3, ...

........................................................................
.............................. CYCLE    9 ..............................
........................................................................
     iter. time                 ...        0 min,  0.000 sec
 * total energy  :    -4.7182317 Eh     change       -0.5023881E-04 Eh
   gradient norm :     0.0045122 Eh/α   predicted    -0.3707666E-04 ( -26.20%)
   displ. norm   :     0.0795663 α      lambda       -0.3347176E-04
   maximum displ.:     0.0532591 α      in ANC's #2, #1, #3, ...

........................................................................
.............................. CYCLE   10 ..............................
........................................................................
     iter. time                 ...        0 min,  0.000 sec
 * total energy  :    -4.7182540 Eh     change       -0.2230541E-04 Eh
   gradient norm :     0.0028070 Eh/α   predicted    -0.1684495E-04 ( -24.48%)
   displ. norm   :     0.0341246 α      lambda       -0.1321062E-04
   maximum displ.:     0.0257468 α      in ANC's #1, #2, #5, ...

   *** FAILED TO CONVERGE GEOMETRY OPTIMIZATION IN 10 ITERATIONS ***


 ANCopt (total)                0 d,  0 h,  0 min,  0.005 sec
 optimizer setup                ...        0 min,  0.000 sec (  1.022%)
 model hessian                  ...        0 min,  0.000 sec (  2.909%)
 ANC generation                 ...        0 min,  0.000 sec (  8.640%)
 coordinate transformation      ...        0 min,  0.000 sec (  0.481%)
 single point calculation       ...        0 min,  0.004 sec ( 72.136%)
 optimization log               ...        0 min,  0.000 sec (  6.817%)
 hessian update                 ...        0 min,  0.000 sec (  0.675%)
 rational function              ...        0 min,  0.000 sec (  4.446%)

================
 final structure:
================
ATOM      1  C   GLY A  15       5.300  -5.538 -10.160  1.00  0.00           C  
ATOM      2  O   GLY A  15       4.470  -6.096 -10.826  1.00  0.00           O  
ATOM      3  N   GLY A  16       6.166  -4.614 -10.651  1.00  0.00           N  
ATOM      4  CA  GLY A  16       6.199  -4.221 -12.055  1.00  0.00           C  
ATOM      5  C   GLY A  16       5.746  -2.789 -12.235  1.00  0.00           C  
ATOM      6  O   GLY A  16       4.685  -2.472 -11.738  1.00  0.00           O  
ATOM      7  H   GLY A  16       6.731  -4.033 -10.033  1.00  0.00           H  
ATOM      8  HA2 GLY A  16       7.199  -4.385 -12.454  1.00  0.00           H  
ATOM      9  HA3 GLY A  16       5.510  -4.880 -12.596  1.00  0.00           H  
ATOM     10  N   GLY A  17       6.462  -1.846 -12.915  1.00  0.00           N  
ATOM     11  CA  GLY A  17       7.754  -2.011 -13.589  1.00  0.00           C  
ATOM     12  C   GLY A  17       8.006  -0.921 -14.576  1.00  0.00           C  
ATOM     13  O   GLY A  17       7.096  -0.397 -15.183  1.00  0.00           O  
ATOM     14  H   GLY A  17       6.034  -0.935 -13.056  1.00  0.00           H  
ATOM     15  HA2 GLY A  17       8.539  -2.041 -12.832  1.00  0.00           H  
ATOM     16  HA3 GLY A  17       7.753  -2.966 -14.124  1.00  0.00           H  
ATOM     17  N   ALA A  18       9.325  -0.584 -14.783  1.00  0.00           N  
ATOM     18  CA  ALA A  18       9.734   0.365 -15.797  1.00  0.00           C  
ATOM     19  C   ALA A  18      11.257   0.455 -15.842  1.00  0.00           C  
ATOM     20  CB  ALA A  18       9.118   1.730 -15.555  1.00  0.00           C  
ATOM     21  O   ALA A  18      11.859   0.126 -14.824  1.00  0.00           O  
ATOM     22  OXT ALA A  18      11.742   0.867 -16.891  1.00  0.00           O  
ATOM     23  H   ALA A  18      10.091  -0.974 -14.222  1.00  0.00           H  
ATOM     24  HA  ALA A  18       9.385  -0.037 -16.762  1.00  0.00           H  
ATOM     25  HB1 ALA A  18       9.455   2.126 -14.596  1.00  0.00           H  
ATOM     26  HB2 ALA A  18       9.401   2.438 -16.336  1.00  0.00           H  
ATOM     27  HB3 ALA A  18       8.027   1.657 -15.524  1.00  0.00           H  
END

 Bond Distances (Angstroems)
 ---------------------------
C1-O2=1.2017         C1-N3=1.3578         O2-C1=1.2017         N3-C1=1.3578         N3-C4=1.4588         N3-H7=1.0192         
C4-N3=1.4588         C4-C5=1.5125         C4-H8=1.0896         C4-H9=1.0957         C5-C4=1.5125         C5-O6=1.2136         
C5-N10=1.3654        O6-C5=1.2136         H7-N3=1.0192         H8-C4=1.0896         H9-C4=1.0957         N10-C5=1.3654        
N10-C11=1.4670       N10-H14=1.0157       C11-N10=1.4670       C11-C12=1.4923       C11-H15=1.0908       C11-H16=1.0943       
C12-C11=1.4923       C12-O13=1.2132       C12-N17=1.3765       O13-C12=1.2132       H14-N10=1.0157       H15-C11=1.0908       
H16-C11=1.0943       N17-C12=1.3765       N17-C18=1.4483       N17-H23=1.0266       C18-N17=1.4483       C18-C19=1.5259       
C18-C20=1.5167       C18-H24=1.1026       C19-C18=1.5259       C19-O21=1.2271       C19-O22=1.2271       C20-C18=1.5167       
C20-H25=1.0909       C20-H26=1.0921       C20-H27=1.0932       O21-C19=1.2271       O22-C19=1.2271       H23-N17=1.0266       
H24-C18=1.1026       H25-C20=1.0909       H26-C20=1.0921       H27-C20=1.0932       
 C  H  Rav=1.0937 sigma=0.0039  Rmin=1.0896  Rmax=1.1026     8
 C  C  Rav=1.5118 sigma=0.0123  Rmin=1.4923  Rmax=1.5259     4
 N  H  Rav=1.0205 sigma=0.0046  Rmin=1.0157  Rmax=1.0266     3
 N  C  Rav=1.4123 sigma=0.0464  Rmin=1.3578  Rmax=1.4670     6
 O  C  Rav=1.2166 sigma=0.0096  Rmin=1.2017  Rmax=1.2271     5

 selected bond angles (degree)
 --------------------
N3-C1-O2=123.82                C4-N3-C1=123.07                H7-N3-C1=121.49                H7-N3-C4=114.67                
C5-C4-N3=111.26                H8-C4-N3=109.39                H8-C4-C5=111.99                H9-C4-N3=107.37                
H9-C4-C5=108.81                H9-C4-H8=107.86                O6-C5-C4=117.43                N10-C5-C4=123.78               
N10-C5-O6=118.79               C11-N10-C5=127.79              H14-N10-C5=117.91              H14-N10-C11=114.07             

 selected dihedral angles (degree)
 ---------------------------------
C4-N3-C1-O2=358.62            H7-N3-C1-O2=168.02            C5-C4-N3-C1=112.44            C5-C4-N3-H7=302.38            
H8-C4-N3-C1=236.69            H8-C4-N3-H7= 66.63            H9-C4-N3-C1=353.48            H9-C4-N3-H7=183.42            
O6-C5-C4-N3=308.07            O6-C5-C4-H8=185.30            O6-C5-C4-H9= 66.16            N10-C5-C4-N3=127.92           
N10-C5-C4-H8=  5.15           N10-C5-C4-H9=246.01           C11-N10-C5-C4=  0.30          C11-N10-C5-O6=180.14          
H14-N10-C5-C4=174.37          H14-N10-C5-O6=354.21          
           -------------------------------------------------
          |                Final Singlepoint                |
           -------------------------------------------------
         :::::::::::::::::::::::::::::::::::::::::::::::::::::
         ::                     SUMMARY                     ::
         :::::::::::::::::::::::::::::::::::::::::::::::::::::
         :: total energy              -4.718263282603 Eh    ::
         :: total w/o Gsolv           -4.684649810328 Eh    ::
         :: total w/o Gsasa/hb        -4.717508368158 Eh    ::
         :: gradient norm              0.001780158969 Eh/a0 ::
         ::.................................................::
         :: bond energy               -4.707848404797 Eh    ::
         :: angle energy               0.020462704539 Eh    ::
         :: torsion energy             0.004795368375 Eh    ::
         :: repulsion energy           0.313806828599 Eh    ::
         :: electrostat energy        -0.292288598575 Eh    ::
         :: dispersion energy         -0.017415573123 Eh    ::
         :: HB energy                 -0.000626045703 Eh    ::
         :: XB energy                  0.000000000000 Eh    ::
         :: bonded atm energy         -0.006545503001 Eh    ::
         :: external energy            0.000000000000 Eh    ::
         :: -> Gsolv                  -0.033613472275 Eh    ::
         ::    -> Gborn               -0.032858557831 Eh    ::
         ::    -> Gsasa                0.011323441016 Eh    ::
         ::    -> Ghb                 -0.012443294715 Eh    ::
         ::    -> Gshift               0.000364939255 Eh    ::
         :: add. restraining           0.001009413357 Eh    ::
         :: total charge              -0.000000000000 e     ::
         ::.................................................::
         :: atomisation energy         0.000000000000 Eh    ::
         :::::::::::::::::::::::::::::::::::::::::::::::::::::

           -------------------------------------------------
          |                Property Printout                |
           -------------------------------------------------
           -------------------------------------------------
          |                Geometry Summary                 |
           -------------------------------------------------

      molecular mass/u    :      229.1903697
   center of mass at/Å    :        7.8185174      -1.7263113     -13.6180543
  moments of inertia/u·Å² :        0.3200153E+03   0.3286515E+04   0.3487312E+04
rotational constants/cm⁻¹ :        0.5267759E-01   0.5129334E-02   0.4833990E-02

 * 22 selected distances

     #   Z          #   Z                                           value/Å
     1   6  C       3   7  N                                      1.3577622
     3   7  N       4   6  C                                      1.4587660
     5   6  C       6   8  O                                      1.2136396
     3   7  N       7   1  H                                      1.0191518
     4   6  C       8   1  H                                      1.0896064
     4   6  C       9   1  H                                      1.0957085
     5   6  C      10   7  N                                      1.3653964
    10   7  N      11   6  C                                      1.4670287
    12   6  C      13   8  O                                      1.2132230
    10   7  N      14   1  H                                      1.0156887 (min)
    11   6  C      15   1  H                                      1.0907755
    11   6  C      16   1  H                                      1.0942841
    12   6  C      17   7  N                                      1.3765378
    17   7  N      18   6  C                                      1.4483485
    18   6  C      20   6  C                                      1.5166723 (max)
    19   6  C      21   8  O                                      1.2270901
    19   6  C      22   8  O                                      1.2271061
    17   7  N      23   1  H                                      1.0266170
    18   6  C      24   1  H                                      1.1026351
    20   6  C      25   1  H                                      1.0909228
    20   6  C      26   1  H                                      1.0921322
    20   6  C      27   1  H                                      1.0932339

 * 5 distinct bonds (by element types)

   Z      Z             #   av. dist./Å        max./Å        min./Å
   1 H    6 C           8     1.0936623     1.1026351     1.0896064
   6 C    6 C           1     1.5166723     1.5166723     1.5166723
   1 H    7 N           3     1.0204858     1.0266170     1.0156887
   6 C    7 N           6     1.4123066     1.4670287     1.3577622
   6 C    8 O           4     1.2202647     1.2271061     1.2132230


optimized geometry written to: xtbopt.pdb


           -------------------------------------------------
          | TOTAL ENERGY               -4.718263282603 Eh   |
          | GRADIENT NORM               0.001780158969 Eh/α |
           -------------------------------------------------
########################################################################
[WARNING] Runtime exception occurred
-1- gfnff_setup: Could not read topology file.
########################################################################

------------------------------------------------------------------------
 unit  open   action     filename
   10 false : read       xtb_settings.inp
   10 false : read       substructure_4.pdb
   10 false : read       xtb_settings.inp
   10 false : written    gfnff_topo
   10 false : written    gfnff_adjacency
   10 false : written    gfnff_charges
   10 false : deleted    .xtboptok
   10 false : replaced   xtbopt.log
   11 false : created    .xtboptok
   11 false : replaced   gfnff_charges
   10 false : replaced   xtbopt.pdb

------------------------------------------------------------------------
 * finished run on 2025/05/27 at 09:37:32.143     
------------------------------------------------------------------------
 total:
 * wall-time:     0 d,  0 h,  0 min,  0.009 sec
 *  cpu-time:     0 d,  0 h,  0 min,  0.009 sec
 * ratio c/w:     1.000 speedup
 SCF:
 * wall-time:     0 d,  0 h,  0 min,  0.001 sec
 *  cpu-time:     0 d,  0 h,  0 min,  0.001 sec
 * ratio c/w:     1.000 speedup
 ANC optimizer:
 * wall-time:     0 d,  0 h,  0 min,  0.006 sec
 *  cpu-time:     0 d,  0 h,  0 min,  0.006 sec
 * ratio c/w:     1.000 speedup

