      -----------------------------------------------------------      
     |                   =====================                   |     
     |                           x T B                           |     
     |                   =====================                   |     
     |                         S. Grimme                         |     
     |          Mulliken Center for Theoretical Chemistry        |     
     |                    University of Bonn                     |     
      -----------------------------------------------------------      

   * xtb version 6.6.1 (8d0f1dd) compiled by 'conda@1efc2f54142f' on 2023-08-01

   xtb is free software: you can redistribute it and/or modify it under
   the terms of the GNU Lesser General Public License as published by
   the Free Software Foundation, either version 3 of the License, or
   (at your option) any later version.
   
   xtb is distributed in the hope that it will be useful,
   but WITHOUT ANY WARRANTY; without even the implied warranty of
   MERCHANTABILITY or FITNESS FOR A PARTICULAR PURPOSE.  See the
   GNU Lesser General Public License for more details.
   
   Cite this work as:
   * C. Bannwarth, E. Caldeweyher, S. Ehlert, A. Hansen, P. Pracht,
     J. Seibert, S. Spicher, S. Grimme, WIREs Comput. Mol. Sci., 2020, 11,
     e01493. DOI: 10.1002/wcms.1493
   
   for GFN2-xTB:
   * C. Bannwarth, S. Ehlert and S. Grimme., J. Chem. Theory Comput., 2019,
     15, 1652-1671. DOI: 10.1021/acs.jctc.8b01176
   for GFN1-xTB:
   * S. Grimme, C. Bannwarth, P. Shushkov, J. Chem. Theory Comput., 2017,
     13, 1989-2009. DOI: 10.1021/acs.jctc.7b00118
   for GFN0-xTB:
   * P. Pracht, E. Caldeweyher, S. Ehlert, S. Grimme, ChemRxiv, 2019, preprint.
     DOI: 10.26434/chemrxiv.8326202.v1
   for GFN-FF:
   * S. Spicher and S. Grimme, Angew. Chem. Int. Ed., 2020, 59, 15665-15673.
     DOI: 10.1002/anie.202004239
   
   for ALPB and GBSA implicit solvation:
   * S. Ehlert, M. Stahn, S. Spicher, S. Grimme, J. Chem. Theory Comput.,
     2021, 17, 4250-4261. DOI: 10.1021/acs.jctc.1c00471
   
   for DFT-D4:
   * E. Caldeweyher, C. Bannwarth and S. Grimme, J. Chem. Phys., 2017,
     147, 034112. DOI: 10.1063/1.4993215
   * E. Caldeweyher, S. Ehlert, A. Hansen, H. Neugebauer, S. Spicher,
     C. Bannwarth and S. Grimme, J. Chem. Phys., 2019, 150, 154122.
     DOI: 10.1063/1.5090222
   * E. Caldeweyher, J.-M. Mewes, S. Ehlert and S. Grimme, Phys. Chem. Chem. Phys.
     2020, 22, 8499-8512. DOI: 10.1039/D0CP00502A
   
   for sTDA-xTB:
   * S. Grimme and C. Bannwarth, J. Chem. Phys., 2016, 145, 054103.
     DOI: 10.1063/1.4959605
   
   in the mass-spec context:
   * V. Asgeirsson, C. Bauer and S. Grimme, Chem. Sci., 2017, 8, 4879.
     DOI: 10.1039/c7sc00601b
   * J. Koopman and S. Grimme, ACS Omega 2019, 4, 12, 15120-15133.
     DOI: 10.1021/acsomega.9b02011
   
   for metadynamics refer to:
   * S. Grimme, J. Chem. Theory Comput., 2019, 155, 2847-2862
     DOI: 10.1021/acs.jctc.9b00143
   
   for SPH calculations refer to:
   * S. Spicher and S. Grimme, J. Chem. Theory Comput., 2021, 17, 1701-1714
     DOI: 10.1021/acs.jctc.0c01306
   
   with help from (in alphabetical order)
   P. Atkinson, C. Bannwarth, F. Bohle, G. Brandenburg, E. Caldeweyher
   M. Checinski, S. Dohm, S. Ehlert, S. Ehrlich, I. Gerasimov, C. Hölzer
   A. Katbashev, J. Koopman, C. Lavigne, S. Lehtola, F. März, M. Müller,
   F. Musil, H. Neugebauer, J. Pisarek, C. Plett, P. Pracht, F. Pultar,
   J. Seibert, P. Shushkov, S. Spicher, M. Stahn, M. Steiner, T. Strunk,
   J. Stückrath, T. Rose, and J. Unsleber
   
 * started run on 2025/05/27 at 09:37:38.436     

           -------------------------------------------------
          |                Calculation Setup                |
           -------------------------------------------------

          program call               : xtb substructure_16.pdb --gfnff --input xtb_settings.inp --opt vtight --alpb water --verbose
          coordinate file            : substructure_16.pdb
          xtbhome directory          : /home/dargen3
          path for xtb               : /home/dargen3
          xcontrol input file        : xtb_settings.inp
          omp threads                :                     1

$$$$$$$$$$$$$$$$$$$$$$$$$$$$$$$$$$$$$$$$$$$$$$$$$$$$$$$$$$$$$$$$$$$$$$$$
 CONSTRAINTS & SCANS: DEBUG SECTION
$$$$$$$$$$$$$$$$$$$$$$$$$$$$$$$$$$$$$$$$$$$$$$$$$$$$$$$$$$$$$$$$$$$$$$$$
   ID    Z sym.   atoms
    1    6  C     1, 4, 5, 11, 12, 18-20
    2    8  O     2, 6, 13, 21, 22
    3    7  N     3, 10, 17
    4    1  H     7-9, 14-16, 23-27
> constrain
-> atoms: 1, 2, 3, 4, 5, 6, 7, 8, 9, 10, 11, 12, 13, 14, 15, 16, 18
--> 1: 1
--> 2: 2
--> 3: 3
--> 4: 4
--> 5: 5
--> 6: 6
--> 7: 7
--> 8: 8
--> 9: 9
--> 10: 10
--> 11: 11
--> 12: 12
--> 13: 13
--> 14: 14
--> 15: 15
--> 16: 16
--> 17: 18
-> force constant=1.0
$$$$$$$$$$$$$$$$$$$$$$$$$$$$$$$$$$$$$$$$$$$$$$$$$$$$$$$$$$$$$$$$$$$$$$$$
           -------------------------------------------------
          |                   Constraints                   |
           -------------------------------------------------

 * 17 constrained atom positions
   positions refering to input geometry

     #   Z                                   position/Å      displ./Å
     1   6 C      5.3830005    -5.6550005   -10.2130009     0.0000000
     2   8 O      4.6020004    -6.2420006   -10.9300010     0.0000000
     3   7 N      6.2250006    -4.6790004   -10.6950010     0.0000000
     4   6 C      6.1780006    -4.2520004   -12.0880011     0.0000000
     5   6 C      5.7500005    -2.8070003   -12.1960011     0.0000000
     6   8 O      4.7150004    -2.4860002   -11.6500011     0.0000000
     7   1 H      6.7510006    -4.0710004   -10.0660009     0.0000000
     8   1 H      7.1550007    -4.4140004   -12.5450012     0.0000000
     9   1 H      5.4500005    -4.8820005   -12.5970012     0.0000000
    10   7 N      6.4890006    -1.8490002   -12.8730012     0.0000000
    11   6 C      7.7600007    -2.0220002   -13.5740013     0.0000000
    12   6 C      8.0890008    -0.8140001   -14.3760013     0.0000000
    13   8 O      7.2630007     0.0580000   -14.5380013     0.0000000
    14   1 H      6.0990006    -0.9100001   -12.9800012     0.0000000
    15   1 H      8.5430008    -2.2360002   -12.8460012     0.0000000
    16   1 H      7.6690007    -2.8910003   -14.2460013     0.0000000
    18   6 C      9.7400009     0.3630000   -15.7630015     0.0000000

     applying 136 atom pairwise harmonic potentials
       applied force constant per pair:     0.0625000
     effective force constant per atom:     1.0000000
         constraining energy/grad norm:     0.0000000     0.0000000

     total constraint energy/grad norm:     0.0000000     0.0000000

          charge from pdb residues: 0

          entering GFN-FF setup routine... 27

          ==================== Thresholds ====================
          CN  :   150.00000
          rep :   500.00000
          disp:  2500.00000
          HB1 :   250.00000
          HB2 :   450.00000

          Pauling EN used:
          Z : 1  EN :  2.20
          Z : 6  EN :  2.55
          Z : 7  EN :  3.04
          Z : 8  EN :  3.44
          electric field strengths (au): 0.000

           ------------------------------------------------- 
          |           Force Field Initialization            |
           ------------------------------------------------- 

          distances ...
          ----------------------------------------
          generating topology and atomic info file ...
          pair mat ...
          computing topology distances matrix with Floyd-Warshall algo ...
          making topology EEQ charges ...
          #fragments for EEQ constrain from pdb file: 4
          ----------------------------------------
          generating topology and atomic info file ...
          pair mat ...
          computing topology distances matrix with Floyd-Warshall algo ...
          making topology EEQ charges ...
          #fragments for EEQ constrain from pdb file: 4
          rings ...
          # BATM   212
          # H in HB   11
          doing iterative Hueckel for 4 subsystem(s) ...
          iterative Hueckel run to get P ...
Hueckel system :  1 charge :   0 ndim/Nel :    3    3   eps(HOMO/LUMO)   -0.954392   -0.954392
Hueckel system :  2 charge :   0 ndim/Nel :    3    4   eps(HOMO/LUMO)   -0.913580   -0.913580
Hueckel system :  3 charge :   0 ndim/Nel :    3    4   eps(HOMO/LUMO)   -0.920785   -0.920785
Hueckel system :  4 charge :   0 ndim/Nel :    3    3   eps(HOMO/LUMO)   -0.818326   -0.818326

  atom   neighbors  erfCN metchar sp-hybrid imet pi  qest     coordinates
    1   C      2    1.93   0.00        -2    0    1   0.120   10.172396  -10.686401  -19.299773
    2   O      1    0.98   0.00         2    0    1  -0.120    8.696520  -11.795670  -20.654707
    3   N      3    2.79   0.00        -3    0    1  -0.164   11.763545   -8.842029  -20.210621
    4   C      4    3.49   0.00         3    0    0   0.003   11.674728   -8.035115  -22.843009
    5   C      3    2.79   0.00         2    0    1   0.172   10.865925   -5.304461  -23.047100
    6   O      1    0.98   0.00         2    0    1  -0.352    8.910059   -4.697859  -22.015309
    7   H      1    0.98   0.00         0    0    0   0.153   12.757541   -7.693075  -19.021983
    8   H      1    0.97   0.00         0    0    0   0.094   13.520990   -8.341251  -23.706614
    9   H      1    0.97   0.00         0    0    0   0.094   10.299007   -9.225643  -23.804880
   10   N      3    2.79   0.00        -3    0    1  -0.164   12.262433   -3.494104  -24.326444
   11   C      4    3.49   0.00         3    0    0   0.004   14.664275   -3.821026  -25.651142
   12   C      3    2.80   0.00         2    0    1   0.168   15.285995   -1.538237  -27.166703
   13   O      1    0.98   0.00         2    0    1  -0.351   13.725081    0.109604  -27.472838
   14   H      1    0.98   0.00         0    0    0   0.153   11.525440   -1.719651  -24.528645
   15   H      1    0.97   0.00         0    0    0   0.094   16.143930   -4.225428  -24.275422
   16   H      1    0.97   0.01         0    0    0   0.094   14.492310   -5.463198  -26.921038
   17   N      3    2.80   0.00        -3    0    1  -0.149   17.685947   -1.345485  -28.109676
   18   C      4    3.49   0.00         3    0    0   0.036   18.405932    0.685971  -29.787753
   19   C      3    2.79   0.00         2    0    1   0.266   21.089344    0.292908  -30.747734
   20   C      4    3.49   0.00         3    0    0  -0.062   18.156489    3.240880  -28.476283
   21   O      1    0.98   0.00         2    0    1  -0.330   22.432939   -1.160292  -29.536419
   22   O      1    0.98   0.00         2    0    1  -0.330   21.673269    1.487214  -32.646909
   23   H      1    0.98   0.00         0    0    0   0.160   19.078675   -2.634278  -27.709054
   24   H      1    0.97   0.01         0    0    0   0.103   17.109580    0.612271  -31.409138
   25   H      1    0.97   0.00         0    0    0   0.102   19.390480    3.308910  -26.826552
   26   H      1    0.97   0.00         0    0    0   0.102   18.685612    4.784787  -29.740510
   27   H      1    0.97   0.00         0    0    0   0.102   16.215740    3.539457  -27.833776

molecular fragment  # atoms  topo charge
       1             2            -0.000
       2             7             0.000
       3             7            -0.000
       4            11            -0.000


          #atoms :   27
          #bonds :   26

 bond atoms        type  in ring    R      R0    piBO    fqq  kbond(tot)  alp
 O  C     2    1      2    0     1.212   0.995   0.798   1.047  -0.252   0.584
 N  C     3    1      2    0     1.376   1.214   0.504   1.047  -0.235   0.524
 C  N     4    3      1    0     1.458   1.326 -99.000   1.030  -0.151   0.496
 C  C     5    4      1    0     1.511   1.332 -99.000   1.017  -0.163   0.475
 O  C     6    5      2    0     1.213   1.031   0.856   1.047  -0.262   0.584
 H  N     7    3      1    0     1.021   0.890 -99.000   1.047  -0.176   0.551
 H  C     8    4      1    0     1.091   0.976 -99.000   1.020  -0.164   0.482
 H  C     9    4      1    0     1.089   0.976 -99.000   1.020  -0.164   0.482
 N  C    10    5      2    0     1.386   1.263   0.503   1.047  -0.234   0.524
 C  N    11   10      1    0     1.462   1.326 -99.000   1.032  -0.151   0.496
 C  C    12   11      1    0     1.487   1.332 -99.000   1.015  -0.163   0.475
 O  C    13   12      2    0     1.212   1.031   0.857   1.047  -0.262   0.584
 H  N    14   10      1    0     1.022   0.890 -99.000   1.047  -0.176   0.551
 H  C    15   11      1    0     1.090   0.976 -99.000   1.018  -0.164   0.482
 H  C    16   11      1    0     1.102   0.976 -99.000   1.018  -0.164   0.482
 N  C    17   12      2    0     1.368   1.264   0.502   1.047  -0.234   0.524
 C  N    18   17      1    0     1.445   1.326 -99.000   1.047  -0.153   0.496
 C  C    19   18      1    0     1.522   1.332 -99.000   1.000  -0.160   0.475
 C  C    20   18      1    0     1.525   1.371 -99.000   1.043  -0.155   0.468
 O  C    21   19      2    0     1.228   1.058   0.703   1.047  -0.236   0.584
 O  C    22   19      2    0     1.227   1.058   0.703   1.047  -0.236   0.584
 H  N    23   17      1    0     1.026   0.890 -99.000   1.047  -0.176   0.551
 H  C    24   18      1    0     1.099   0.976 -99.000   1.001  -0.161   0.482
 H  C    25   20      1    0     1.091   0.976 -99.000   1.047  -0.169   0.482
 H  C    26   20      1    0     1.092   0.976 -99.000   1.047  -0.169   0.482
 H  C    27   20      1    0     1.093   0.976 -99.000   1.047  -0.169   0.482
          #angl  :   43

 angle atoms        phi0    phi      FC  pi rings
    1    3    2   145.000 122.047   0.082 F   0
    3    4    1   115.000 121.514   0.411 F   0
    3    7    1   115.000 121.459   0.335 F   0
    3    7    4   104.000 115.530   0.182 F   0
    4    5    3   109.500 110.952   0.307 F   0
    4    8    3   109.500 109.148   0.253 F   0
    4    8    5   109.500 111.459   0.251 F   0
    4    9    3   109.500 107.382   0.253 F   0
    4    9    5   109.500 109.298   0.251 F   0
    4    9    8   108.600 108.484   0.209 F   0
    5    6    4   120.000 117.546   0.178 F   0
    5   10    4   120.000 123.007   0.243 F   0
    5   10    6   120.000 119.444   0.177 F   0
   10   11    5   115.000 128.014   0.409 F   0
   10   14    5   115.000 118.842   0.334 F   0
   10   14   11   104.000 112.966   0.182 F   0
   11   12   10   109.500 110.788   0.307 F   0
   11   15   10   109.500 109.113   0.253 F   0
   11   15   12   109.500 111.143   0.251 F   0
   11   16   10   109.500 108.293   0.253 F   0
   11   16   12   109.500 109.265   0.251 F   0
   11   16   15   108.600 108.156   0.209 F   0
   12   13   11   120.000 120.387   0.178 F   0
   12   17   11   120.000 117.558   0.243 F   0
   12   17   13   120.000 122.017   0.177 F   0
   17   18   12   115.000 121.609   0.409 F   0
   17   23   12   115.000 122.797   0.334 F   0
   17   23   18   104.000 115.585   0.181 F   0
   18   19   17   109.500 110.441   0.307 F   0
   18   20   17   109.500 110.907   0.305 F   0
   18   20   19   109.500 110.708   0.305 F   0
   18   24   17   109.500 106.777   0.253 F   0
   18   24   19   109.500 108.469   0.253 F   0
   18   24   20   109.500 109.424   0.251 F   0
   19   21   18   120.000 116.837   0.176 F   0
   19   22   18   120.000 115.971   0.176 F   0
   19   22   21   122.000 127.189   0.252 F   0
   20   25   18   109.500 109.972   0.250 F   0
   20   26   18   109.500 111.226   0.250 F   0
   20   26   25   108.600 108.179   0.207 F   0
   20   27   18   109.500 110.540   0.250 F   0
   20   27   25   108.600 107.980   0.207 F   0
   20   27   26   108.600 108.852   0.207 F   0
 torsion atoms        nrot   rings    phi0    phi      FC
    3    1    4    2   2      0     180.000   2.982   0.763
    3    1    7    2   2      0     180.000 168.396   1.132
    4    3    5    1   3      0     180.000 115.526   0.023
    4    3    5    7   3      0     180.000  50.701   0.032
    4    3    8    1   3      0     180.000 121.269   0.033
    4    3    8    7   3      0     180.000  72.503   0.045
    4    3    9    1   3      0     180.000   3.859   0.033
    4    3    9    7   3      0     180.000 170.087   0.045
    5    4    6    3   3      0     180.000  53.686   0.065
    5    4    6    8   3      0     180.000 175.550   0.114
    5    4    6    9   3      0     180.000  64.544   0.114
    5    4   10    3   3      0     180.000 125.704   0.041
    5    4   10    8   3      0     180.000   3.840   0.072
    5    4   10    9   3      0     180.000 116.067   0.072
   10    5   11    4   2      0     180.000   0.338   0.608
   10    5   11    6   2      0     180.000 179.040   0.824
   10    5   14    4   2      0     180.000 174.445   0.902
   10    5   14    6   2      0     180.000   6.176   1.222
   11   10   12    5   3      0     180.000 169.462   0.022
   11   10   12   14   3      0     180.000   5.576   0.032
   11   10   15    5   3      0     180.000  67.863   0.032
   11   10   15   14   3      0     180.000 117.100   0.045
   11   10   16    5   3      0     180.000  49.647   0.032
   11   10   16   14   3      0     180.000 125.391   0.045
   12   11   13   10   3      0     180.000  10.421   0.066
   12   11   13   15   3      0     180.000 131.910   0.115
   12   11   13   16   3      0     180.000 108.810   0.115
   12   11   17   10   3      0     180.000 167.404   0.041
   12   11   17   15   3      0     180.000  45.915   0.072
   12   11   17   16   3      0     180.000  73.365   0.072
   17   12   18   11   2      0     180.000 174.428   0.589
   17   12   18   13   2      0     180.000   7.785   0.798
   17   12   23   11   2      0     180.000   4.402   0.873
   17   12   23   13   2      0     180.000 173.385   1.184
   18   17   19   12   3      0     180.000 174.370   0.023
   18   17   19   23   3      0     180.000   4.539   0.032
   18   17   20   12   3      0     180.000  62.513   0.022
   18   17   20   23   3      0     180.000 118.578   0.031
   18   17   24   12   3      0     180.000  56.629   0.032
   18   17   24   23   3      0     180.000 122.280   0.046
   19   18   21   17   3      0     180.000  18.799   0.054
   19   18   21   20   3      0     180.000 104.433   0.064
   19   18   21   24   3      0     180.000 135.495   0.095
   19   18   22   17   3      0     180.000 161.719   0.054
   19   18   22   20   3      0     180.000  75.049   0.064
   19   18   22   24   3      0     180.000  45.023   0.095
   20   18   25   17   3      0     180.000  60.583   0.120
   20   18   25   19   3      0     180.000  62.379   0.148
   20   18   25   24   3      0     180.000 178.121   0.210
   20   18   26   17   3      0     180.000 179.597   0.120
   20   18   26   19   3      0     180.000  57.441   0.148
   20   18   26   24   3      0     180.000  62.059   0.210
   20   18   27   17   3      0     180.000  58.553   0.120
   20   18   27   19   3      0     180.000 178.485   0.148
   20   18   27   24   3      0     180.000  58.985   0.210
 out-of-plane atoms          phi0    phi      FC
    3    7    1    4          0.000  12.398   0.140
    5    6   10    4          0.000   0.521  23.801
   10   14    5   11          0.000   4.108   0.143
   12   13   17   11          0.000   1.962  23.557
   17   23   12   18          0.000  -0.997   0.201
   19   22   21   18          0.000   0.521  27.630
          #tors  :   61
          #nmol  :   4
          #optfrag :   4

 GFN-FF setup done.

           ------------------------------------------------- 
          |                   G F N - F F                   |
          |          A general generic force-field          |
          |                  Version 1.0.3                  | 
           ------------------------------------------------- 
      * Solvation model:               ALPB
        Solvent                        water
        Parameter file                 internal GFN-FF/ALPB
        Dielectric constant                8.0200E+01
        Reference state                gsolv [1 M gas/solution]
        Free energy shift                  3.6494E-04 Eh       2.2900E-01 kcal/mol
        Temperature                        2.9815E+02 K
        Density                            1.0000E+00 kg/L
        Solvent mass                       1.8000E+01 g/mol
        Interaction kernel             P16
        Born radius scaling (c1)           1.5056E+00
        Born radii integrator          GBOBC
        Born offset                        0.0000E+00 a0       0.0000E+00 AA
        H-bond correction              true
        Ion screening                  false
        Surface tension                    1.0000E-05 Eh       1.5569E+01 dyn/cm
        Grid points                               230 per atom
          Number of HB bonds (bound hydrogen)     186
          Number of HB bonds (unbound hydrogen)   19
          Number of XB bonds                      0

 E+G (total)                   0 d,  0 h,  0 min,  0.000 sec
 distance/D3 list               ...        0 min,  0.000 sec (  0.289%)
 non bonded repulsion           ...        0 min,  0.000 sec (  1.904%)
 dCN                            ...        0 min,  0.000 sec (  2.494%)
 EEQ energy and q               ...        0 min,  0.000 sec (  3.796%)
 D3                             ...        0 min,  0.000 sec (  7.082%)
 EEQ gradient                   ...        0 min,  0.000 sec (  4.198%)
 bonds                          ...        0 min,  0.000 sec (  0.992%)
 bend and torsion               ...        0 min,  0.000 sec (  5.073%)
 bonded ATM                     ...        0 min,  0.000 sec (  1.763%)
 HB/XB (incl list setup)        ...        0 min,  0.000 sec (  6.464%)
 GBSA                           ...        0 min,  0.000 sec ( 67.544%)

         :::::::::::::::::::::::::::::::::::::::::::::::::::::
         ::                     SUMMARY                     ::
         :::::::::::::::::::::::::::::::::::::::::::::::::::::
         :: total energy              -4.719815219121 Eh    ::
         :: total w/o Gsolv           -4.686504923822 Eh    ::
         :: total w/o Gsasa/hb        -4.718771209423 Eh    ::
         :: gradient norm              0.058777086785 Eh/a0 ::
         ::.................................................::
         :: bond energy               -4.703257913504 Eh    ::
         :: angle energy               0.019645719893 Eh    ::
         :: torsion energy             0.005259705210 Eh    ::
         :: repulsion energy           0.311612510644 Eh    ::
         :: electrostat energy        -0.293987043725 Eh    ::
         :: dispersion energy         -0.017412549897 Eh    ::
         :: HB energy                 -0.001103206327 Eh    ::
         :: XB energy                  0.000000000000 Eh    ::
         :: bonded atm energy         -0.007262146115 Eh    ::
         :: external energy            0.000000000000 Eh    ::
         :: -> Gsolv                  -0.033310295299 Eh    ::
         ::    -> Gborn               -0.032266285601 Eh    ::
         ::    -> Gsasa                0.011026445246 Eh    ::
         ::    -> Ghb                 -0.012435394199 Eh    ::
         ::    -> Gshift               0.000364939255 Eh    ::
         :: add. restraining           0.000000000000 Eh    ::
         :: total charge               0.000000000000 e     ::
         ::.................................................::
         :: atomisation energy         0.000000000000 Eh    ::
         :::::::::::::::::::::::::::::::::::::::::::::::::::::

      ----------------------------------------------------------- 
     |                   =====================                   |
     |                        A N C O P T                        |
     |                   =====================                   |
     |               Approximate Normal Coordinate               |
     |                Rational Function Optimizer                |
      ----------------------------------------------------------- 

          ...................................................
          :                      SETUP                      :
          :.................................................:
          :   optimization level         verytight          :
          :   max. optcycles                    10          :
          :   ANC micro-cycles                  10          :
          :   degrees of freedom                75          :
          :.................................................:
          :   RF solver                   davidson          :
          :   write xtbopt.log                true          :
          :   linear?                        false          :
          :   energy convergence         0.1000000E-06 Eh   :
          :   grad. convergence          0.2000000E-03 Eh/α :
          :   maxmium RF displ.          1.0000000          :
          :   Hlow (freq-cutoff)         0.1000000E-01      :
          :   Hmax (freq-cutoff)         5.0000000          :
          :   S6 in model hess.         20.0000000          :
          ...................................................

generating ANC from model Hessian ...
Using GFN-FF Lindh-Hessian
 Shifting diagonal of input Hessian by    7.7145931000576710E-003
 Lowest  eigenvalues of input Hessian
    0.000000    0.000000    0.000000    0.000000    0.000000    0.000000
    0.010000    0.012728    0.015608    0.024828    0.025982    0.033056
    0.038153    0.057592    0.068708    0.100004    0.106979    0.124721
 Highest eigenvalues
    3.280913    3.494053    3.523354    3.806096    3.941976    4.132861


........................................................................
.............................. CYCLE    1 ..............................
........................................................................
     iter. time                 ...        0 min,  0.000 sec
 * total energy  :    -4.7198152 Eh     change        0.0000000E+00 Eh
   gradient norm :     0.0587771 Eh/α   predicted     0.0000000E+00 (    NaN%)
   displ. norm   :     0.0400910 α      lambda       -0.1426229E-02
   maximum displ.:     0.0217369 α      in ANC's #1, #73, #62, ...

........................................................................
.............................. CYCLE    2 ..............................
........................................................................
     iter. time                 ...        0 min,  0.000 sec
 * total energy  :    -4.7207961 Eh     change       -0.9808961E-03 Eh
   gradient norm :     0.0228097 Eh/α   predicted    -0.7143156E-03 ( -27.18%)
   displ. norm   :     0.0472705 α      lambda       -0.4193339E-03
   maximum displ.:     0.0346406 α      in ANC's #1, #2, #7, ...

........................................................................
.............................. CYCLE    3 ..............................
........................................................................
     iter. time                 ...        0 min,  0.000 sec
 * total energy  :    -4.7210332 Eh     change       -0.2370574E-03 Eh
   gradient norm :     0.0056156 Eh/α   predicted    -0.2101377E-03 ( -11.36%)
   displ. norm   :     0.0362158 α      lambda       -0.4533072E-04
   maximum displ.:     0.0278331 α      in ANC's #1, #2, #7, ...

........................................................................
.............................. CYCLE    4 ..............................
........................................................................
     iter. time                 ...        0 min,  0.000 sec
 * total energy  :    -4.7210700 Eh     change       -0.3683407E-04 Eh
   gradient norm :     0.0039982 Eh/α   predicted    -0.2328794E-04 ( -36.78%)
   displ. norm   :     0.0832658 α      lambda       -0.6490957E-04
   maximum displ.:     0.0606184 α      in ANC's #1, #2, #7, ...

........................................................................
.............................. CYCLE    5 ..............................
........................................................................
     iter. time                 ...        0 min,  0.000 sec
 * total energy  :    -4.7211138 Eh     change       -0.4375681E-04 Eh
   gradient norm :     0.0035600 Eh/α   predicted    -0.3277117E-04 ( -25.11%)
   displ. norm   :     0.0764472 α      lambda       -0.3153828E-04
   maximum displ.:     0.0530099 α      in ANC's #1, #2, #7, ...

........................................................................
.............................. CYCLE    6 ..............................
........................................................................
     iter. time                 ...        0 min,  0.000 sec
 * total energy  :    -4.7211382 Eh     change       -0.2448523E-04 Eh
   gradient norm :     0.0038504 Eh/α   predicted    -0.1586336E-04 ( -35.21%)
   displ. norm   :     0.1070688 α      lambda       -0.3728989E-04
   maximum displ.:     0.0705789 α      in ANC's #2, #1, #7, ...

........................................................................
.............................. CYCLE    7 ..............................
........................................................................
     iter. time                 ...        0 min,  0.000 sec
 * total energy  :    -4.7211655 Eh     change       -0.2729871E-04 Eh
   gradient norm :     0.0032172 Eh/α   predicted    -0.1887026E-04 ( -30.87%)
   displ. norm   :     0.0857501 α      lambda       -0.2317941E-04
   maximum displ.:     0.0572138 α      in ANC's #2, #1, #7, ...

........................................................................
.............................. CYCLE    8 ..............................
........................................................................
     iter. time                 ...        0 min,  0.000 sec
 * total energy  :    -4.7211821 Eh     change       -0.1656724E-04 Eh
   gradient norm :     0.0021115 Eh/α   predicted    -0.1168084E-04 ( -29.49%)
   displ. norm   :     0.0550952 α      lambda       -0.1152371E-04
   maximum displ.:     0.0381747 α      in ANC's #1, #2, #7, ...

........................................................................
.............................. CYCLE    9 ..............................
........................................................................
     iter. time                 ...        0 min,  0.000 sec
 * total energy  :    -4.7211903 Eh     change       -0.8151769E-05 Eh
   gradient norm :     0.0014187 Eh/α   predicted    -0.5779549E-05 ( -29.10%)
   displ. norm   :     0.0539677 α      lambda       -0.5799568E-05
   maximum displ.:     0.0415525 α      in ANC's #1, #2, #6, ...

........................................................................
.............................. CYCLE   10 ..............................
........................................................................
     iter. time                 ...        0 min,  0.000 sec
 * total energy  :    -4.7211951 Eh     change       -0.4849283E-05 Eh
   gradient norm :     0.0011824 Eh/α   predicted    -0.2916768E-05 ( -39.85%)
   displ. norm   :     0.0123574 α      lambda       -0.1678715E-05
   maximum displ.:     0.0100539 α      in ANC's #1, #6, #3, ...

   *** FAILED TO CONVERGE GEOMETRY OPTIMIZATION IN 10 ITERATIONS ***


 ANCopt (total)                0 d,  0 h,  0 min,  0.005 sec
 optimizer setup                ...        0 min,  0.000 sec (  1.062%)
 model hessian                  ...        0 min,  0.000 sec (  2.866%)
 ANC generation                 ...        0 min,  0.000 sec (  7.905%)
 coordinate transformation      ...        0 min,  0.000 sec (  0.519%)
 single point calculation       ...        0 min,  0.003 sec ( 73.052%)
 optimization log               ...        0 min,  0.000 sec (  7.085%)
 hessian update                 ...        0 min,  0.000 sec (  0.683%)
 rational function              ...        0 min,  0.000 sec (  3.812%)

================
 final structure:
================
ATOM      1  C   GLY A  15       5.397  -5.628 -10.202  1.00  0.00           C  
ATOM      2  O   GLY A  15       4.638  -6.248 -10.900  1.00  0.00           O  
ATOM      3  N   GLY A  16       6.221  -4.649 -10.670  1.00  0.00           N  
ATOM      4  CA  GLY A  16       6.195  -4.243 -12.071  1.00  0.00           C  
ATOM      5  C   GLY A  16       5.739  -2.814 -12.221  1.00  0.00           C  
ATOM      6  O   GLY A  16       4.681  -2.508 -11.711  1.00  0.00           O  
ATOM      7  H   GLY A  16       6.714  -4.009 -10.043  1.00  0.00           H  
ATOM      8  HA2 GLY A  16       7.185  -4.397 -12.508  1.00  0.00           H  
ATOM      9  HA3 GLY A  16       5.493  -4.904 -12.588  1.00  0.00           H  
ATOM     10  N   GLY A  17       6.469  -1.855 -12.905  1.00  0.00           N  
ATOM     11  CA  GLY A  17       7.756  -2.019 -13.577  1.00  0.00           C  
ATOM     12  C   GLY A  17       8.080  -0.818 -14.396  1.00  0.00           C  
ATOM     13  O   GLY A  17       7.243   0.039 -14.584  1.00  0.00           O  
ATOM     14  H   GLY A  17       6.061  -0.927 -13.041  1.00  0.00           H  
ATOM     15  HA2 GLY A  17       8.530  -2.194 -12.824  1.00  0.00           H  
ATOM     16  HA3 GLY A  17       7.703  -2.898 -14.229  1.00  0.00           H  
ATOM     17  N   ALA A  18       9.342  -0.738 -14.931  1.00  0.00           N  
ATOM     18  CA  ALA A  18       9.733   0.378 -15.764  1.00  0.00           C  
ATOM     19  C   ALA A  18      11.146   0.162 -16.296  1.00  0.00           C  
ATOM     20  CB  ALA A  18       9.633   1.692 -15.012  1.00  0.00           C  
ATOM     21  O   ALA A  18      11.855  -0.628 -15.680  1.00  0.00           O  
ATOM     22  OXT ALA A  18      11.454   0.815 -17.288  1.00  0.00           O  
ATOM     23  H   ALA A  18      10.075  -1.430 -14.737  1.00  0.00           H  
ATOM     24  HA  ALA A  18       9.040   0.385 -16.622  1.00  0.00           H  
ATOM     25  HB1 ALA A  18      10.295   1.678 -14.145  1.00  0.00           H  
ATOM     26  HB2 ALA A  18       9.919   2.534 -15.646  1.00  0.00           H  
ATOM     27  HB3 ALA A  18       8.612   1.852 -14.653  1.00  0.00           H  
END

 Bond Distances (Angstroems)
 ---------------------------
C1-O2=1.2028         C1-N3=1.3627         O2-C1=1.2028         N3-C1=1.3627         N3-C4=1.4588         N3-H7=1.0223         
C4-N3=1.4588         C4-C5=1.5072         C4-H8=1.0928         C4-H9=1.0946         C5-C4=1.5072         C5-O6=1.2138         
C5-N10=1.3864        O6-C5=1.2138         H7-N3=1.0223         H8-C4=1.0928         H9-C4=1.0946         N10-C5=1.3864        
N10-C11=1.4612       N10-H14=1.0223       C11-N10=1.4612       C11-C12=1.4898       C11-H15=1.0942       C11-H16=1.0956       
C12-C11=1.4898       C12-O13=1.2121       C12-N17=1.3727       O13-C12=1.2121       H14-N10=1.0223       H15-C11=1.0942       
H16-C11=1.0956       N17-C12=1.3727       N17-C18=1.4466       N17-H23=1.0270       C18-N17=1.4466       C18-C19=1.5257       
C18-C20=1.5172       C18-H24=1.1028       C19-C18=1.5257       C19-O21=1.2270       C19-O22=1.2272       C20-C18=1.5172       
C20-H25=1.0909       C20-H26=1.0922       C20-H27=1.0933       O21-C19=1.2270       O22-C19=1.2272       H23-N17=1.0270       
H24-C18=1.1028       H25-C20=1.0909       H26-C20=1.0922       H27-C20=1.0933       
 C  H  Rav=1.0945 sigma=0.0034  Rmin=1.0909  Rmax=1.1028     8
 C  C  Rav=1.5100 sigma=0.0134  Rmin=1.4898  Rmax=1.5257     4
 N  H  Rav=1.0239 sigma=0.0022  Rmin=1.0223  Rmax=1.0270     3
 N  C  Rav=1.4147 sigma=0.0416  Rmin=1.3627  Rmax=1.4612     6
 O  C  Rav=1.2166 sigma=0.0094  Rmin=1.2028  Rmax=1.2272     5

 selected bond angles (degree)
 --------------------
N3-C1-O2=123.54                C4-N3-C1=121.29                H7-N3-C1=122.07                H7-N3-C4=115.02                
C5-C4-N3=111.37                H8-C4-N3=109.23                H8-C4-C5=111.58                H9-C4-N3=107.27                
H9-C4-C5=109.35                H9-C4-H8=107.89                O6-C5-C4=117.49                N10-C5-C4=123.08               
N10-C5-O6=119.44               C11-N10-C5=127.80              H14-N10-C5=118.89              H14-N10-C11=113.13             

 selected dihedral angles (degree)
 ---------------------------------
C4-N3-C1-O2=  2.59            H7-N3-C1-O2=167.34            C5-C4-N3-C1=115.53            C5-C4-N3-H7=309.76            
H8-C4-N3-C1=239.22            H8-C4-N3-H7= 73.45            H9-C4-N3-C1=355.90            H9-C4-N3-H7=190.13            
O6-C5-C4-N3=306.06            O6-C5-C4-H8=183.71            O6-C5-C4-H9= 64.44            N10-C5-C4-N3=125.99           
N10-C5-C4-H8=  3.65           N10-C5-C4-H9=244.38           C11-N10-C5-C4=359.78          C11-N10-C5-O6=179.72          
H14-N10-C5-C4=174.51          H14-N10-C5-O6=354.44          
           -------------------------------------------------
          |                Final Singlepoint                |
           -------------------------------------------------
         :::::::::::::::::::::::::::::::::::::::::::::::::::::
         ::                     SUMMARY                     ::
         :::::::::::::::::::::::::::::::::::::::::::::::::::::
         :: total energy              -4.721197061796 Eh    ::
         :: total w/o Gsolv           -4.687666060907 Eh    ::
         :: total w/o Gsasa/hb        -4.720137715693 Eh    ::
         :: gradient norm              0.000498018106 Eh/a0 ::
         ::.................................................::
         :: bond energy               -4.706002552714 Eh    ::
         :: angle energy               0.019289508767 Eh    ::
         :: torsion energy             0.004929889808 Eh    ::
         :: repulsion energy           0.313046814322 Eh    ::
         :: electrostat energy        -0.293791316369 Eh    ::
         :: dispersion energy         -0.017420885443 Eh    ::
         :: HB energy                 -0.001113168934 Eh    ::
         :: XB energy                  0.000000000000 Eh    ::
         :: bonded atm energy         -0.007272109441 Eh    ::
         :: external energy            0.000000000000 Eh    ::
         :: -> Gsolv                  -0.033531000890 Eh    ::
         ::    -> Gborn               -0.032471654787 Eh    ::
         ::    -> Gsasa                0.011040311271 Eh    ::
         ::    -> Ghb                 -0.012464596629 Eh    ::
         ::    -> Gshift               0.000364939255 Eh    ::
         :: add. restraining           0.000667759099 Eh    ::
         :: total charge               0.000000000000 e     ::
         ::.................................................::
         :: atomisation energy         0.000000000000 Eh    ::
         :::::::::::::::::::::::::::::::::::::::::::::::::::::

           -------------------------------------------------
          |                Property Printout                |
           -------------------------------------------------
           -------------------------------------------------
          |                Geometry Summary                 |
           -------------------------------------------------

      molecular mass/u    :      229.1903697
   center of mass at/Å    :        7.8609416      -1.7974159     -13.6557830
  moments of inertia/u·Å² :        0.3272910E+03   0.3273392E+04   0.3497721E+04
rotational constants/cm⁻¹ :        0.5150656E-01   0.5149897E-02   0.4819605E-02

 * 22 selected distances

     #   Z          #   Z                                           value/Å
     1   6  C       3   7  N                                      1.3626502
     3   7  N       4   6  C                                      1.4588020
     5   6  C       6   8  O                                      1.2138449
     3   7  N       7   1  H                                      1.0222639 (min)
     4   6  C       8   1  H                                      1.0927984
     4   6  C       9   1  H                                      1.0946024
     5   6  C      10   7  N                                      1.3863892
    10   7  N      11   6  C                                      1.4611940
    12   6  C      13   8  O                                      1.2120708
    10   7  N      14   1  H                                      1.0222974
    11   6  C      15   1  H                                      1.0941816
    11   6  C      16   1  H                                      1.0955840
    12   6  C      17   7  N                                      1.3726717
    17   7  N      18   6  C                                      1.4465940
    18   6  C      20   6  C                                      1.5172134 (max)
    19   6  C      21   8  O                                      1.2270437
    19   6  C      22   8  O                                      1.2272360
    17   7  N      23   1  H                                      1.0270228
    18   6  C      24   1  H                                      1.1028019
    20   6  C      25   1  H                                      1.0909103
    20   6  C      26   1  H                                      1.0921591
    20   6  C      27   1  H                                      1.0932700

 * 5 distinct bonds (by element types)

   Z      Z             #   av. dist./Å        max./Å        min./Å
   1 H    6 C           8     1.0945385     1.1028019     1.0909103
   6 C    6 C           1     1.5172134     1.5172134     1.5172134
   1 H    7 N           3     1.0238614     1.0270228     1.0222639
   6 C    7 N           6     1.4147168     1.4611940     1.3626502
   6 C    8 O           4     1.2200488     1.2272360     1.2120708


optimized geometry written to: xtbopt.pdb


           -------------------------------------------------
          | TOTAL ENERGY               -4.721197061796 Eh   |
          | GRADIENT NORM               0.000498018106 Eh/α |
           -------------------------------------------------
########################################################################
[WARNING] Runtime exception occurred
-1- gfnff_setup: Could not read topology file.
########################################################################

------------------------------------------------------------------------
 unit  open   action     filename
   10 false : read       xtb_settings.inp
   10 false : read       substructure_16.pdb
   10 false : read       xtb_settings.inp
   10 false : written    gfnff_topo
   10 false : written    gfnff_adjacency
   10 false : written    gfnff_charges
   10 false : deleted    .xtboptok
   10 false : replaced   xtbopt.log
   11 false : created    .xtboptok
   11 false : replaced   gfnff_charges
   10 false : replaced   xtbopt.pdb

------------------------------------------------------------------------
 * finished run on 2025/05/27 at 09:37:38.445     
------------------------------------------------------------------------
 total:
 * wall-time:     0 d,  0 h,  0 min,  0.008 sec
 *  cpu-time:     0 d,  0 h,  0 min,  0.008 sec
 * ratio c/w:     1.000 speedup
 SCF:
 * wall-time:     0 d,  0 h,  0 min,  0.001 sec
 *  cpu-time:     0 d,  0 h,  0 min,  0.001 sec
 * ratio c/w:     1.001 speedup
 ANC optimizer:
 * wall-time:     0 d,  0 h,  0 min,  0.005 sec
 *  cpu-time:     0 d,  0 h,  0 min,  0.005 sec
 * ratio c/w:     1.000 speedup

