27
 energy: -4.720542603782 gnorm: 0.060114867154 xtb: 6.6.1 (8d0f1dd)
 C           5.41300000000000       -5.67600000000000      -10.22000000000000
 O           4.64000000000000       -6.27000000000000      -10.94100000000000
 N           6.27600000000000       -4.71500000000000      -10.70700000000000
 C           6.17800000000000       -4.25200000000000      -12.08800000000000
 C           5.80300000000000       -2.78800000000000      -12.12400000000000
 O           4.83500000000000       -2.44300000000000      -11.48000000000000
 H           6.77900000000000       -4.09000000000000      -10.07600000000000
 H           7.12800000000000       -4.43500000000000      -12.59300000000000
 H           5.40600000000000       -4.83800000000000      -12.57700000000000
 N           6.50300000000000       -1.84400000000000      -12.85900000000000
 C           7.76000000000000       -2.02200000000000      -13.57400000000000
 C           8.16800000000000       -0.77400000000000      -14.26700000000000
 O           7.55200000000000        0.25400000000000      -14.08300000000000
 H           6.20000000000000       -0.86800000000000      -12.82900000000000
 H           8.53300000000000       -2.33400000000000      -12.86200000000000
 H           7.63400000000000       -2.83300000000000      -14.30900000000000
 N           9.25700000000000       -0.82800000000000      -15.10300000000000
 C           9.74000000000000        0.36300000000000      -15.76300000000000
 C          10.88000000000000        0.00200000000000      -16.70600000000000
 C          10.18000000000000        1.41700000000000      -14.76000000000000
 O          11.54500000000000       -0.98500000000000      -16.40700000000000
 O          11.04200000000000        0.74200000000000      -17.67200000000000
 H           9.87000000000000       -1.65000000000000      -15.16900000000000
 H           8.90100000000000        0.74900000000000      -16.36500000000000
 H          10.99600000000000        1.03100000000000      -14.14700000000000
 H          10.53000000000000        2.32100000000000      -15.26200000000000
 H           9.35400000000000        1.68200000000000      -14.09500000000000
27
 energy: -4.721482524253 gnorm: 0.022332560226 xtb: 6.6.1 (8d0f1dd)
 C           5.41841882279267       -5.67356913335936      -10.22632494604068
 O           4.64207122855879       -6.27035582707851      -10.93268733249189
 N           6.27333730456584       -4.71773860092128      -10.70659942363248
 C           6.17808549105774       -4.24920075806220      -12.08512705459828
 C           5.80222620416796       -2.78812214201208      -12.12505781877970
 O           4.83382466873390       -2.44254773862156      -11.48126302163307
 H           6.77550743944666       -4.09013323197802      -10.07490965020540
 H           7.12746438701800       -4.43499794230848      -12.59292959843631
 H           5.40442680591297       -4.83779043464783      -12.57889701657899
 N           6.50261995325817       -1.84450757781436      -12.86010627581754
 C           7.75993307065696       -2.02654705091004      -13.57480101101172
 C           8.16832280296329       -0.77465495272545      -14.26749596468396
 O           7.55320369690390        0.25359121006308      -14.08234786028653
 H           6.20033064243508       -0.86810815165942      -12.82996671668847
 H           8.53288806468912       -2.33440702864161      -12.86208766849385
 H           7.63455709972726       -2.83353559017204      -14.30881331426178
 N           9.25687676093692       -0.82761297930475      -15.10338797520741
 C           9.74018070915195        0.36473536673866      -15.76221839731129
 C          10.87969795727454        0.00203195884410      -16.70637572847311
 C          10.18037219783581        1.41709163266655      -14.75956821370883
 O          11.54439504129857       -0.98517908339948      -16.40734150011856
 O          11.04247803721464        0.74249288748138      -17.67158924002619
 H           9.86941765605367       -1.64941048221697      -15.17079154665474
 H           8.90112288019658        0.75051842848648      -16.36475107945007
 H          10.99619737703405        1.03063645411267      -14.14682930884882
 H          10.53065951666611        2.32147212382528      -15.26135271786950
 H           9.35438418344886        1.68184864361524      -14.09437961869083
27
 energy: -4.721664113343 gnorm: 0.004945880713 xtb: 6.6.1 (8d0f1dd)
 C           5.42167717996928       -5.67443972247615      -10.23174484505978
 O           4.64118677669450       -6.26990368708329      -10.92842359659558
 N           6.27207080511708       -4.71865423097496      -10.70500506981606
 C           6.17918661087435       -4.24733309189261      -12.08258820917348
 C           5.80204052777150       -2.78840141872003      -12.12588852141848
 O           4.83278674620373       -2.44282909294438      -11.48280725421934
 H           6.77424834252489       -4.08869439506687      -10.07404485162019
 H           7.12761953313218       -4.43508022423399      -12.59287305483283
 H           5.40523455774227       -4.83829003862532      -12.57929269035917
 N           6.50227760450963       -1.84448286116218      -12.86095180518649
 C           7.75997248525918       -2.02870384073123      -13.57559936971368
 C           8.16808275949768       -0.77462575890436      -14.26789546978444
 O           7.55358620672233        0.25363336418752      -14.08221576936006
 H           6.19991282444569       -0.86818092561107      -12.83062537764724
 H           8.53272422334026       -2.33342677680867      -12.86166338605980
 H           7.63493628182257       -2.83363700435854      -14.30894065886100
 N           9.25626574907609       -0.82729600512823      -15.10346845206432
 C           9.74022169128163        0.36580266470254      -15.76144129609033
 C          10.87931565014544        0.00182981819679      -16.70670627226135
 C          10.18084971677499        1.41669284114587      -14.75924332095361
 O          11.54389090691885       -0.98552276128332      -16.40792976793752
 O          11.04228513099643        0.74276264492879      -17.67130632999681
 H           9.86832854907864       -1.64912766301386      -15.17154471451158
 H           8.90123530988715        0.75143614747635      -16.36448143145494
 H          10.99653854743759        1.02977394687380      -14.14669391809008
 H          10.53153491169650        2.32127817023254      -15.26084414322738
 H           9.35499037107958        1.68141990127486      -14.09378042370445
27
 energy: -4.721681793493 gnorm: 0.002832072988 xtb: 6.6.1 (8d0f1dd)
 C           5.42275477832859       -5.67602562709759      -10.23339346286550
 O           4.63999188043491       -6.26922436379396      -10.92828378887403
 N           6.27225843271424       -4.71820378339338      -10.70405036960967
 C           6.17987032922675       -4.24708506250864      -12.08190217740532
 C           5.80210918775594       -2.78857285914538      -12.12602327358937
 O           4.83227139192168       -2.44323035998619      -11.48359581317761
 H           6.77400873015289       -4.08760712547326      -10.07367972841438
 H           7.12795543435025       -4.43499519291401      -12.59276290562773
 H           5.40628861886753       -4.83871774558148      -12.57911636929527
 N           6.50214372577326       -1.84437823532171      -12.86104934612285
 C           7.76000053146155       -2.02865489528057      -13.57573471073052
 C           8.16770160422150       -0.77438769741428      -14.26801170651340
 O           7.55314959881564        0.25375237877939      -14.08246493003164
 H           6.19945004411337       -0.86825222062208      -12.83089337641981
 H           8.53262351957114       -2.33276100316424      -12.86129388496096
 H           7.63507344083062       -2.83358434542285      -14.30892860506617
 N           9.25585739365690       -0.82714672811553      -15.10346225984894
 C           9.74018789686894        0.36607038084238      -15.76123346907350
 C          10.87908069693657        0.00164921167048      -16.70681370760443
 C          10.18120297989855        1.41640216804578      -14.75913373947330
 O          11.54346694336018       -0.98585838191488      -16.40822747255741
 O          11.04196589111212        0.74272210264820      -17.67127988734965
 H           9.86783447885141       -1.64903102864539      -15.17148313387223
 H           8.90127851936662        0.75173047992055      -16.36440872541676
 H          10.99683842707490        1.02918019059820      -14.14667844014092
 H          10.53214475501780        2.32099271786250      -15.26060414025047
 H           9.35549076931616        1.68121702542793      -14.09349057570818
27
 energy: -4.721689915490 gnorm: 0.001002964682 xtb: 6.6.1 (8d0f1dd)
 C           5.42415592671458       -5.67788842772904      -10.23464127205257
 O           4.63865459271867       -6.26829902598145      -10.92834548233267
 N           6.27274834839015       -4.71753608194718      -10.70311740082595
 C           6.18056437627249       -4.24713512125873      -12.08148917639987
 C           5.80215550804523       -2.78878391570110      -12.12616973830991
 O           4.83155267215114       -2.44378334588813      -11.48468554527011
 H           6.77334772575717       -4.08621852882653      -10.07321444794555
 H           7.12848337815284       -4.43482944205633      -12.59248869404449
 H           5.40748181242053       -4.83924958084957      -12.57898199857803
 N           6.50201847593828       -1.84429976922482      -12.86106399797554
 C           7.76004001429043       -2.02829937632274      -13.57573492722431
 C           8.16723064488169       -0.77410936857187      -14.26815599647320
 O           7.55239791171425        0.25385082520103      -14.08295207465258
 H           6.19881661393499       -0.86838471676416      -12.83138180362238
 H           8.53250912318335       -2.33202316869197      -12.86085337475457
 H           7.63539184379274       -2.83353207259097      -14.30878402762100
 N           9.25540673104116       -0.82699317362173      -15.10352636667799
 C           9.74012257099464        0.36634375914410      -15.76106974275497
 C          10.87871511148174        0.00149247770019      -16.70697306770777
 C          10.18174329975302        1.41603221959515      -14.75891985974001
 O          11.54278229033534       -0.98628645546971      -16.40869896852769
 O          11.04140083347497        0.74274032543360      -17.67132665589477
 H           9.86737569091144       -1.64891004500616      -15.17138092467921
 H           8.90127538184945        0.75216842986610      -16.36423485095058
 H          10.99733480798927        1.02834612801082      -14.14665451131977
 H          10.53301360348460        2.32062152844437      -15.26016436810156
 H           9.35628071032580        1.68096592310683      -14.09299072556295
27
 energy: -4.721691044161 gnorm: 0.000586386907 xtb: 6.6.1 (8d0f1dd)
 C           5.42492413501067       -5.67835818531201      -10.23463728644412
 O           4.63838505536740       -6.26790138243187      -10.92814617108535
 N           6.27306881901846       -4.71730837589870      -10.70292537963074
 C           6.18077178781710       -4.24733172905625      -12.08155600387260
 C           5.80206608781048       -2.78890202028348      -12.12637296699315
 O           4.83104364195712       -2.44410898182724      -11.48545120171177
 H           6.77255127670462       -4.08542329805195      -10.07291092316128
 H           7.12890045225772       -4.43469373714876      -12.59211673887233
 H           5.40791835542833       -4.83953634286830      -12.57901530046200
 N           6.50194685275688       -1.84433889525276      -12.86111117777914
 C           7.76004399461419       -2.02808809200644      -13.57564930954481
 C           8.16703704888117       -0.77405033908543      -14.26829585647139
 O           7.55192668217131        0.25380923518235      -14.08338274172594
 H           6.19836804760154       -0.86853434108167      -12.83193664635366
 H           8.53243786603019       -2.33167464708936      -12.86061868633274
 H           7.63576736038897       -2.83359166452920      -14.30859401680139
 N           9.25523647069114       -0.82695972710077      -15.10367550486910
 C           9.74008243280259        0.36647847697036      -15.76101631332326
 C          10.87841608347055        0.00155434154668      -16.70717199116917
 C          10.18216960014015        1.41578355717022      -14.75864139611627
 O          11.54230586146585       -0.98642243641266      -16.40920761213821
 O          11.04087478836131        0.74298689542912      -17.67143534072625
 H           9.86725070716267       -1.64886226282763      -15.17144187145886
 H           8.90120615717824        0.75258840506908      -16.36393538467243
 H          10.99776473331834        1.02772351264361      -14.14660127429663
 H          10.53362198721835        2.32040455647623      -15.25968074875652
 H           9.35691371437464        1.68075747777681      -14.09247215523090
27
 energy: -4.721691399348 gnorm: 0.000173577037 xtb: 6.6.1 (8d0f1dd)
 C           5.42516233779605       -5.67816214765073      -10.23435555925086
 O           4.63862710307908       -6.26788645575536      -10.92785097168831
 N           6.27318712928870       -4.71728776350592      -10.70293188446978
 C           6.18085835177230       -4.24739054412612      -12.08158029798597
 C           5.80191286022177       -2.78898260072683      -12.12663351279067
 O           4.83067599770603       -2.44430084883752      -11.48600692132895
 H           6.77192476593599       -4.08488413214103      -10.07266110379932
 H           7.12919643532937       -4.43460924176672      -12.59178941380038
 H           5.40816015203106       -4.83975122479535      -12.57898470035257
 N           6.50185360646210       -1.84441406982097      -12.86128127517335
 C           7.76002546354734       -2.02807863118949      -13.57561828280663
 C           8.16696086964328       -0.77409571556616      -14.26845330865453
 O           7.55167396449403        0.25371456598999      -14.08372771524999
 H           6.19799113060477       -0.86868486389650      -12.83248994568692
 H           8.53236812649467       -2.33141481683160      -12.86042830818035
 H           7.63611085508195       -2.83371812798890      -14.30844632088481
 N           9.25517346154460       -0.82696394898670      -15.10383036585950
 C           9.74007200006899        0.36656557907819      -15.76096232735190
 C          10.87817380956624        0.00171792490457      -16.70741158127738
 C          10.18251829692575        1.41556239586715      -14.75834236791198
 O          11.54201280224354       -0.98638345456112      -16.40975383527279
 O          11.04040867011792        0.74334889138120      -17.67156340281044
 H           9.86719714422685       -1.64885735224645      -15.17160691553409
 H           8.90112425993890        0.75300439785178      -16.36357412749500
 H          10.99812571452173        1.02718665802063      -14.14652897009083
 H          10.53408189223013        2.32023476801602      -15.25920264577767
 H           9.35742279912683        1.68053075928394      -14.09198393851502
27
 energy: -4.721691507583 gnorm: 0.000126450906 xtb: 6.6.1 (8d0f1dd)
 C           5.42518104912544       -5.67797363744508      -10.23413488513362
 O           4.63889942717420       -6.26797319741191      -10.92771049644216
 N           6.27323922427556       -4.71716389854695      -10.70282342551217
 C           6.18098476637389       -4.24738963805631      -12.08150194995940
 C           5.80177304715142       -2.78907259748884      -12.12687463930093
 O           4.83033777809511       -2.44448129655699      -11.48650199836249
 H           6.77155831130896       -4.08441123915884      -10.07248454305212
 H           7.12947826781469       -4.43452221557382      -12.59147057430993
 H           5.40849942768848       -4.83999403914290      -12.57895786108373
 N           6.50172665984644       -1.84448060014493      -12.86148753824999
 C           7.76001893051685       -2.02805236542404      -13.57560675953065
 C           8.16684698418904       -0.77411428086562      -14.26860285352108
 O           7.55139854067982        0.25363910221851      -14.08406600615744
 H           6.19759322795304       -0.86883180512312      -12.83300646118831
 H           8.53229040949881       -2.33110517275148      -12.86019925790803
 H           7.63641013483981       -2.83383091335520      -14.30831745057890
 N           9.25509192220720       -0.82693865897861      -15.10394482120225
 C           9.74006962937437        0.36664835339204      -15.76089481815112
 C          10.87793114123715        0.00185304578175      -16.70765493815220
 C          10.18286187731510        1.41532704713758      -14.75806748261224
 O          11.54173697920029       -0.98634923329057      -16.41027149452834
 O          11.03997494624703        0.74365873125225      -17.67170098389919
 H           9.86710905618872       -1.64883128162909      -15.17173483880315
 H           8.90106410880905        0.75340571661225      -16.36322220738239
 H          10.99847312623287        1.02663657829192      -14.14646263610956
 H          10.53454320250708        2.32004612024115      -15.25876037546742
 H           9.35790782414957        1.68030137601683      -14.09153870340124
27
 energy: -4.721691597496 gnorm: 0.000116512688 xtb: 6.6.1 (8d0f1dd)
 C           5.42518337889825       -5.67778780695094      -10.23395143772893
 O           4.63922255596735       -6.26810681538268      -10.92760483989328
 N           6.27323622392715       -4.71695780897463      -10.70264759959981
 C           6.18112888629170       -4.24738081398627      -12.08139449972595
 C           5.80163311926259       -2.78917125701063      -12.12712253049581
 O           4.82998591442658       -2.44466860741970      -11.48702081844843
 H           6.77124362230311       -4.08394611647051      -10.07230697867047
 H           7.12976858291865       -4.43442933401886      -12.59115103025557
 H           5.40888376279811       -4.84025756687505      -12.57893431968611
 N           6.50157734326287       -1.84455052439861      -12.86171674114194
 C           7.76002326714333       -2.02801416831376      -13.57559237353945
 C           8.16670661173383       -0.77411700725802      -14.26875613278817
 O           7.55108005304980        0.25356889211975      -14.08443480016272
 H           6.19718287525317       -0.86897944599395      -12.83353220296598
 H           8.53220785996076       -2.33076797656958      -12.85995603186941
 H           7.63672242295458       -2.83393590411380      -14.30818194855981
 N           9.25499336731431       -0.82689233305260      -15.10405148478832
 C           9.74006732302807        0.36674882257975      -15.76081686710739
 C          10.87766705270698        0.00197659495519      -16.70790533564826
 C          10.18322863727062        1.41507348428331      -14.75778288683393
 O          11.54142765096249       -0.98633040431276      -16.41078423085348
 O          11.03952842464871        0.74393897008605      -17.67185659204223
 H           9.86699379701191       -1.64878927119482      -15.17187285712472
 H           8.90101007036368        0.75383341006502      -16.36286129199436
 H          10.99883039041984        1.02603840914106      -14.14638400980902
 H          10.53505154846943        2.31983879646840      -15.25829444701135
 H           9.35841525765211        1.68006578259864      -14.09108571125511
