      -----------------------------------------------------------      
     |                   =====================                   |     
     |                           x T B                           |     
     |                   =====================                   |     
     |                         S. Grimme                         |     
     |          Mulliken Center for Theoretical Chemistry        |     
     |                    University of Bonn                     |     
      -----------------------------------------------------------      

   * xtb version 6.6.1 (8d0f1dd) compiled by 'conda@1efc2f54142f' on 2023-08-01

   xtb is free software: you can redistribute it and/or modify it under
   the terms of the GNU Lesser General Public License as published by
   the Free Software Foundation, either version 3 of the License, or
   (at your option) any later version.
   
   xtb is distributed in the hope that it will be useful,
   but WITHOUT ANY WARRANTY; without even the implied warranty of
   MERCHANTABILITY or FITNESS FOR A PARTICULAR PURPOSE.  See the
   GNU Lesser General Public License for more details.
   
   Cite this work as:
   * C. Bannwarth, E. Caldeweyher, S. Ehlert, A. Hansen, P. Pracht,
     J. Seibert, S. Spicher, S. Grimme, WIREs Comput. Mol. Sci., 2020, 11,
     e01493. DOI: 10.1002/wcms.1493
   
   for GFN2-xTB:
   * C. Bannwarth, S. Ehlert and S. Grimme., J. Chem. Theory Comput., 2019,
     15, 1652-1671. DOI: 10.1021/acs.jctc.8b01176
   for GFN1-xTB:
   * S. Grimme, C. Bannwarth, P. Shushkov, J. Chem. Theory Comput., 2017,
     13, 1989-2009. DOI: 10.1021/acs.jctc.7b00118
   for GFN0-xTB:
   * P. Pracht, E. Caldeweyher, S. Ehlert, S. Grimme, ChemRxiv, 2019, preprint.
     DOI: 10.26434/chemrxiv.8326202.v1
   for GFN-FF:
   * S. Spicher and S. Grimme, Angew. Chem. Int. Ed., 2020, 59, 15665-15673.
     DOI: 10.1002/anie.202004239
   
   for ALPB and GBSA implicit solvation:
   * S. Ehlert, M. Stahn, S. Spicher, S. Grimme, J. Chem. Theory Comput.,
     2021, 17, 4250-4261. DOI: 10.1021/acs.jctc.1c00471
   
   for DFT-D4:
   * E. Caldeweyher, C. Bannwarth and S. Grimme, J. Chem. Phys., 2017,
     147, 034112. DOI: 10.1063/1.4993215
   * E. Caldeweyher, S. Ehlert, A. Hansen, H. Neugebauer, S. Spicher,
     C. Bannwarth and S. Grimme, J. Chem. Phys., 2019, 150, 154122.
     DOI: 10.1063/1.5090222
   * E. Caldeweyher, J.-M. Mewes, S. Ehlert and S. Grimme, Phys. Chem. Chem. Phys.
     2020, 22, 8499-8512. DOI: 10.1039/D0CP00502A
   
   for sTDA-xTB:
   * S. Grimme and C. Bannwarth, J. Chem. Phys., 2016, 145, 054103.
     DOI: 10.1063/1.4959605
   
   in the mass-spec context:
   * V. Asgeirsson, C. Bauer and S. Grimme, Chem. Sci., 2017, 8, 4879.
     DOI: 10.1039/c7sc00601b
   * J. Koopman and S. Grimme, ACS Omega 2019, 4, 12, 15120-15133.
     DOI: 10.1021/acsomega.9b02011
   
   for metadynamics refer to:
   * S. Grimme, J. Chem. Theory Comput., 2019, 155, 2847-2862
     DOI: 10.1021/acs.jctc.9b00143
   
   for SPH calculations refer to:
   * S. Spicher and S. Grimme, J. Chem. Theory Comput., 2021, 17, 1701-1714
     DOI: 10.1021/acs.jctc.0c01306
   
   with help from (in alphabetical order)
   P. Atkinson, C. Bannwarth, F. Bohle, G. Brandenburg, E. Caldeweyher
   M. Checinski, S. Dohm, S. Ehlert, S. Ehrlich, I. Gerasimov, C. Hölzer
   A. Katbashev, J. Koopman, C. Lavigne, S. Lehtola, F. März, M. Müller,
   F. Musil, H. Neugebauer, J. Pisarek, C. Plett, P. Pracht, F. Pultar,
   J. Seibert, P. Shushkov, S. Spicher, M. Stahn, M. Steiner, T. Strunk,
   J. Stückrath, T. Rose, and J. Unsleber
   
 * started run on 2025/05/27 at 09:37:37.754     

           -------------------------------------------------
          |                Calculation Setup                |
           -------------------------------------------------

          program call               : xtb substructure_15.pdb --gfnff --input xtb_settings.inp --opt vtight --alpb water --verbose
          coordinate file            : substructure_15.pdb
          xtbhome directory          : /home/dargen3
          path for xtb               : /home/dargen3
          xcontrol input file        : xtb_settings.inp
          omp threads                :                     1

$$$$$$$$$$$$$$$$$$$$$$$$$$$$$$$$$$$$$$$$$$$$$$$$$$$$$$$$$$$$$$$$$$$$$$$$
 CONSTRAINTS & SCANS: DEBUG SECTION
$$$$$$$$$$$$$$$$$$$$$$$$$$$$$$$$$$$$$$$$$$$$$$$$$$$$$$$$$$$$$$$$$$$$$$$$
   ID    Z sym.   atoms
    1    6  C     1, 2, 8-10, 18-20, 22, 23, 34, 35, 41, 42, 48
    2    8  O     3, 11, 21, 36, 43
    3    1  H     4-6, 12-16, 24-32, 37-39, 44-46, 49-51
    4    7  N     7, 17, 33, 40, 47
> constrain
-> atoms: 1, 2, 3, 4, 5, 6, 7, 8, 9, 10, 11, 12, 13, 14, 15, 16, 17, 18, 19, 20, 21, 22, 23, 24, 25, 26, 27, 28, 29, 30, 31, 32, 34, 40, 41, 42, 43, 44, 45, 46, 47, 48, 49, 50, 51
--> 1: 1
--> 2: 2
--> 3: 3
--> 4: 4
--> 5: 5
--> 6: 6
--> 7: 7
--> 8: 8
--> 9: 9
--> 10: 10
--> 11: 11
--> 12: 12
--> 13: 13
--> 14: 14
--> 15: 15
--> 16: 16
--> 17: 17
--> 18: 18
--> 19: 19
--> 20: 20
--> 21: 21
--> 22: 22
--> 23: 23
--> 24: 24
--> 25: 25
--> 26: 26
--> 27: 27
--> 28: 28
--> 29: 29
--> 30: 30
--> 31: 31
--> 32: 32
--> 33: 34
--> 34: 40
--> 35: 41
--> 36: 42
--> 37: 43
--> 38: 44
--> 39: 45
--> 40: 46
--> 41: 47
--> 42: 48
--> 43: 49
--> 44: 50
--> 45: 51
-> force constant=1.0
$$$$$$$$$$$$$$$$$$$$$$$$$$$$$$$$$$$$$$$$$$$$$$$$$$$$$$$$$$$$$$$$$$$$$$$$

molecular fragmentation (1/2 indicates fragments):
121222111111111111111111111111111111111111111111111
# atoms in fragment 1/2:    47     4
 fragment masses (1/2) :      341.36       15.03
CMA distance (Bohr)    :  14.048
constraining FC (au)   :  1.0000
           -------------------------------------------------
          |                   Constraints                   |
           -------------------------------------------------

 * 45 constrained atom positions
   positions refering to input geometry

     #   Z                                   position/Å      displ./Å
     1   6 C    -12.3740011   -14.2110013     9.3420009     0.0000000
     2   6 C    -14.2790013   -15.5570014     8.4720008     0.0000000
     3   8 O    -12.7640012   -13.1090012     9.0190008     0.0000000
     4   1 H    -13.7050013   -15.8780015     7.6020007     0.0000000
     5   1 H    -15.0190014   -16.3250015     8.7000008     0.0000000
     6   1 H    -14.8110014   -14.6460014     8.1980008     0.0000000
     7   7 N    -11.0450010   -14.5500013     9.4430009     0.0000000
     8   6 C    -10.0120009   -13.5880013     9.1230008     0.0000000
     9   6 C    -10.1070009   -13.2290012     7.6580007     0.0000000
    10   6 C     -8.6240008   -14.0960013     9.4670009     0.0000000
    11   8 O    -10.0110009   -14.1090013     6.8290006     0.0000000
    12   1 H    -10.7420010   -15.4920014     9.6920009     0.0000000
    13   1 H    -10.2370009   -12.6880012     9.7160009     0.0000000
    14   1 H     -8.3930008   -14.9780014     8.8700008     0.0000000
    15   1 H     -7.8620007   -13.3450012     9.2560009     0.0000000
    16   1 H     -8.5530008   -14.3730013    10.5190010     0.0000000
    17   7 N    -10.3070010   -11.9050011     7.3390007     0.0000000
    18   6 C    -10.2890010   -11.4620011     5.9580006     0.0000000
    19   6 C     -8.9150008   -11.7400011     5.3760005     0.0000000
    20   6 C    -10.7570010   -10.0050009     5.7720005     0.0000000
    21   8 O     -7.9680007   -11.0530010     5.7000005     0.0000000
    22   6 C    -12.2100011    -9.8550009     6.2240006     0.0000000
    23   6 C     -9.8500009    -9.0060008     6.4890006     0.0000000
    24   1 H    -10.2640010   -11.1780010     8.0510007     0.0000000
    25   1 H    -11.0050010   -12.1150011     5.4300005     0.0000000
    26   1 H    -10.7050010    -9.7880009     4.6910004     0.0000000
    27   1 H    -12.3110011   -10.0950009     7.2820007     0.0000000
    28   1 H    -12.5720012    -8.8370008     6.0780006     0.0000000
    29   1 H    -12.8700012   -10.5280010     5.6760005     0.0000000
    30   1 H     -9.8950009    -9.1390008     7.5680007     0.0000000
    31   1 H     -8.8100008    -9.1300008     6.1860006     0.0000000
    32   1 H    -10.1430009    -7.9780007     6.2760006     0.0000000
    34   6 C     -7.4510007   -13.4620012     4.4550004     0.0000000
    40   7 N     -5.5340005   -12.8080012     3.1480003     0.0000000
    41   6 C     -4.7940004   -12.6990012     1.9410002     0.0000000
    42   6 C     -4.7400004   -11.2720010     1.4490001     0.0000000
    43   8 O     -5.7650005   -10.6220010     1.4730001     0.0000000
    44   1 H     -5.2000005   -12.2320011     3.9240004     0.0000000
    45   1 H     -3.8120004   -13.1320012     2.0770002     0.0000000
    46   1 H     -5.3190005   -13.3030012     1.1760001     0.0000000
    47   7 N     -3.5760003   -10.6960010     0.9640001     0.0000000
    48   6 C     -2.2890002   -11.3470011     0.7820001     0.0000000
    49   1 H     -3.6340003    -9.7760009     0.5330000     0.0000000
    50   1 H     -1.5420001   -10.8480010     1.4070001     0.0000000
    51   1 H     -2.3300002   -12.3870011     1.1300001     0.0000000

     applying 990 atom pairwise harmonic potentials
       applied force constant per pair:     0.0227273
     effective force constant per atom:     1.0000000
         constraining energy/grad norm:     0.0000000     0.0000000

     total constraint energy/grad norm:     0.0000000     0.0000000

          charge from pdb residues: 0

          entering GFN-FF setup routine... 51

          ==================== Thresholds ====================
          CN  :   150.00000
          rep :   500.00000
          disp:  2500.00000
          HB1 :   250.00000
          HB2 :   450.00000

          Pauling EN used:
          Z : 1  EN :  2.20
          Z : 6  EN :  2.55
          Z : 7  EN :  3.04
          Z : 8  EN :  3.44
          electric field strengths (au): 0.000

           ------------------------------------------------- 
          |           Force Field Initialization            |
           ------------------------------------------------- 

          distances ...
          ----------------------------------------
          generating topology and atomic info file ...
          pair mat ...
          computing topology distances matrix with Floyd-Warshall algo ...
          making topology EEQ charges ...
          #fragments for EEQ constrain from pdb file: 6
          ----------------------------------------
          generating topology and atomic info file ...
          pair mat ...
          computing topology distances matrix with Floyd-Warshall algo ...
          making topology EEQ charges ...
          #fragments for EEQ constrain from pdb file: 6
          rings ...
          # BATM   444
          # H in HB   18
          doing iterative Hueckel for 6 subsystem(s) ...
          iterative Hueckel run to get P ...
Hueckel system :  1 charge :   0 ndim/Nel :    3    3   eps(HOMO/LUMO)   -0.953507   -0.953507
Hueckel system :  3 charge :   0 ndim/Nel :    3    4   eps(HOMO/LUMO)   -0.894229   -0.894229
Hueckel system :  4 charge :   0 ndim/Nel :    3    4   eps(HOMO/LUMO)   -0.920171   -0.920171
Hueckel system :  5 charge :   0 ndim/Nel :    3    4   eps(HOMO/LUMO)   -0.911777   -0.911777
Hueckel system :  6 charge :   0 ndim/Nel :    4    5   eps(HOMO/LUMO)    1.305464    1.305464
WARNING: probably wrong pi occupation for system 6. Second attempt with Nel=Nel-1!
 at,nb,topo%hyb,Npiel:          42  C             3           2           1
 at,nb,topo%hyb,Npiel:          43  O             1           2           1
 at,nb,topo%hyb,Npiel:          47  N             3           3           2
 at,nb,topo%hyb,Npiel:          48  C             3           2           1

          eigenvalues
 #    :           1          2          3          4
 occ. :        2.000      1.987      0.013      0.000
 eps  :        -4.348     -2.183      1.305      3.390
Hueckel system :  6 charge :   0 ndim/Nel :    4    4   eps(HOMO/LUMO)   -2.182611    1.305464

  atom   neighbors  erfCN metchar sp-hybrid imet pi  qest     coordinates
    1   C      2    1.94   0.00        -2    0    1  -0.011  -23.383471  -26.854898   17.653821
    2   C      3    2.78   0.00         3    0    0  -0.069  -26.983399  -29.398469   16.009760
    3   O      1    0.98   0.00         2    0    1  -0.247  -24.120464  -24.772420   17.043440
    4   H      1    0.97   0.00         0    0    0   0.109  -25.898697  -30.005071   14.365698
    5   H      1    0.97   0.00         0    0    0   0.109  -28.381797  -30.849779   16.440617
    6   H      1    0.97   0.00         0    0    0   0.109  -27.988734  -27.676929   15.491975
    7   N      3    2.79   0.00        -3    0    1  -0.114  -20.872025  -27.495515   17.844684
    8   C      4    3.49   0.00         3    0    0   0.028  -18.919938  -25.677599   17.239971
    9   C      3    2.80   0.00         2    0    1   0.164  -19.099462  -24.999187   14.471523
   10   C      4    3.49   0.00         3    0    0  -0.058  -16.296998  -26.637579   17.890037
   11   O      1    0.98   0.00         2    0    1  -0.386  -18.918048  -26.662146   12.904940
   12   H      1    0.98   0.00         0    0    0   0.119  -20.299438  -29.275637   18.315226
   13   H      1    0.97   0.01         0    0    0   0.062  -19.345126  -23.976845   18.360579
   14   H      1    0.97   0.00         0    0    0   0.062  -15.860471  -28.304318   16.761871
   15   H      1    0.97   0.00         0    0    0   0.062  -14.857027  -25.218395   17.491305
   16   H      1    0.97   0.00         0    0    0   0.062  -16.162828  -27.161034   19.878029
   17   N      3    2.79   0.00        -3    0    1  -0.192  -19.477407  -22.497190   13.868700
   18   C      4    3.49   0.00         3    0    0   0.030  -19.443392  -21.660041   11.258988
   19   C      3    2.80   0.00         2    0    1   0.140  -16.846908  -22.185385   10.159168
   20   C      4    3.48   0.00         3    0    0  -0.013  -20.327784  -18.906710   10.907499
   21   O      1    0.98   0.00         2    0    1  -0.392  -15.057338  -20.887143   10.771439
   22   C      4    3.49   0.00         3    0    0  -0.059  -23.073556  -18.623251   11.761655
   23   C      4    3.49   0.00         3    0    0  -0.059  -18.613802  -17.018873   12.262433
   24   H      1    0.98   0.00         0    0    0   0.129  -19.396149  -21.123359   15.214185
   25   H      1    0.97   0.01         0    0    0   0.056  -20.796436  -22.894032   10.261213
   26   H      1    0.97   0.01         0    0    0   0.051  -20.229518  -18.496639    8.864705
   27   H      1    0.97   0.00         0    0    0   0.052  -23.264418  -19.076785   13.760986
   28   H      1    0.97   0.00         0    0    0   0.052  -23.757637  -16.699510   11.485755
   29   H      1    0.97   0.00         0    0    0   0.052  -24.320775  -19.895037   10.726085
   30   H      1    0.97   0.00         0    0    0   0.052  -18.698840  -17.270207   14.301447
   31   H      1    0.97   0.00         0    0    0   0.052  -16.648487  -17.253200   11.689846
   32   H      1    0.97   0.00         0    0    0   0.052  -19.167492  -15.076235   11.859921
   33   N      3    2.79   0.00        -3    0    1  -0.136  -16.548332  -24.243296    8.545342
   34   C      4    3.50   0.00         3    0    0   0.003  -14.080349  -25.439493    8.418730
   35   C      3    2.80   0.00         2    0    1   0.173  -12.814233  -25.301543    5.943189
   36   O      1    0.98   0.00         2    0    1  -0.361  -13.781773  -26.193494    4.066691
   37   H      1    0.98   0.00         0    0    0   0.143  -18.014759  -25.481067    8.328023
   38   H      1    0.97   0.01         0    0    0   0.089  -12.897381  -24.536204    9.871929
   39   H      1    0.97   0.01         0    0    0   0.089  -14.252314  -27.431264    9.000766
   40   N      3    2.80   0.00        -3    0    1  -0.164  -10.457744  -24.203612    5.948858
   41   C      4    3.50   0.00         3    0    0   0.007   -9.059347  -23.997632    3.667958
   42   C      3    2.79   0.00         2    0    1   0.194   -8.957302  -21.300993    2.738213
   43   O      1    0.98   0.00         2    0    1  -0.360  -10.894271  -20.072671    2.783567
   44   H      1    0.98   0.00         0    0    0   0.147   -9.826576  -23.115130    7.415285
   45   H      1    0.97   0.00         0    0    0   0.088   -7.203636  -24.815883    3.924961
   46   H      1    0.97   0.01         0    0    0   0.088  -10.051453  -25.139027    2.222318
   47   N      3    2.79   0.00         3    0    1  -0.225   -6.757661  -20.212511    1.821696
   48   C      3    2.78   0.00         2    0    1  -0.008   -4.325583  -21.442722    1.477766
   49   H      1    0.98   0.00         0    0    0   0.123   -6.867265  -18.473963    1.007224
   50   H      1    0.97   0.00         0    0    0   0.055   -2.913958  -20.499749    2.658845
   51   H      1    0.97   0.00         0    0    0   0.055   -4.403062  -23.408038    2.135391

molecular fragment  # atoms  topo charge
       1             6             0.000
       2            10             0.000
       3            16            -0.000
       4             7             0.000
       5             7             0.000
       6             5            -0.000


          #atoms :   51
          #bonds :   49

 bond atoms        type  in ring    R      R0    piBO    fqq  kbond(tot)  alp
 O  C     3    1      2    0     1.213   0.997   0.792   1.002  -0.240   0.584
 H  C     4    2      1    0     1.091   0.938 -99.000   1.047  -0.169   0.482
 H  C     5    2      1    0     1.091   0.938 -99.000   1.047  -0.169   0.482
 H  C     6    2      1    0     1.090   0.938 -99.000   1.047  -0.169   0.482
 N  C     7    1      2    0     1.375   1.214   0.509   1.010  -0.227   0.524
 C  N     8    7      1    0     1.447   1.326 -99.000   1.045  -0.153   0.496
 C  C     9    8      1    0     1.511   1.332 -99.000   1.000  -0.160   0.475
 C  C    10    8      1    0     1.518   1.371 -99.000   1.040  -0.154   0.468
 O  C    11    9      2    0     1.213   1.031   0.857   1.047  -0.262   0.584
 H  N    12    7      1    0     1.020   0.890 -99.000   1.047  -0.176   0.551
 H  C    13    8      1    0     1.101   0.976 -99.000   1.007  -0.162   0.482
 H  C    14   10      1    0     1.090   0.976 -99.000   1.046  -0.168   0.482
 H  C    15   10      1    0     1.090   0.976 -99.000   1.046  -0.168   0.482
 H  C    16   10      1    0     1.090   0.976 -99.000   1.046  -0.168   0.482
 N  C    17    9      2    0     1.376   1.263   0.502   1.047  -0.234   0.524
 C  N    18   17      1    0     1.450   1.326 -99.000   1.047  -0.153   0.496
 C  C    19   18      1    0     1.518   1.332 -99.000   1.001  -0.160   0.475
 C  C    20   18      1    0     1.542   1.370 -99.000   1.028  -0.153   0.468
 O  C    21   19      2    0     1.214   1.030   0.860   1.047  -0.262   0.584
 C  C    22   20      1    0     1.529   1.370 -99.000   1.014  -0.151   0.468
 C  C    23   20      1    0     1.528   1.370 -99.000   1.014  -0.151   0.468
 H  N    24   17      1    0     1.018   0.890 -99.000   1.047  -0.176   0.551
 H  C    25   18      1    0     1.104   0.976 -99.000   1.007  -0.162   0.482
 H  C    26   20      1    0     1.104   0.976 -99.000   1.031  -0.166   0.482
 H  C    27   22      1    0     1.090   0.976 -99.000   1.045  -0.168   0.482
 H  C    28   22      1    0     1.090   0.976 -99.000   1.045  -0.168   0.482
 H  C    29   22      1    0     1.090   0.976 -99.000   1.045  -0.168   0.482
 H  C    30   23      1    0     1.088   0.976 -99.000   1.045  -0.168   0.482
 H  C    31   23      1    0     1.090   0.976 -99.000   1.045  -0.168   0.482
 H  C    32   23      1    0     1.090   0.976 -99.000   1.045  -0.168   0.482
 N  C    33   19      2    0     1.393   1.264   0.496   1.047  -0.233   0.524
 C  N    34   33      1    0     1.453   1.326 -99.000   1.029  -0.150   0.496
 C  C    35   34      1    0     1.473   1.333 -99.000   1.017  -0.163   0.475
 O  C    36   35      2    0     1.213   1.031   0.857   1.047  -0.262   0.584
 H  N    37   33      1    0     1.022   0.890 -99.000   1.047  -0.176   0.551
 H  C    38   34      1    0     1.101   0.977 -99.000   1.020  -0.164   0.482
 H  C    39   34      1    0     1.102   0.977 -99.000   1.020  -0.164   0.482
 N  C    40   35      2    0     1.376   1.264   0.502   1.047  -0.234   0.524
 C  N    41   40      1    0     1.420   1.326 -99.000   1.036  -0.151   0.496
 C  C    42   41      1    0     1.510   1.332 -99.000   1.009  -0.162   0.475
 O  C    43   42      2    0     1.214   1.018   0.930   1.047  -0.274   0.584
 H  N    44   40      1    0     1.022   0.890 -99.000   1.047  -0.176   0.551
 H  C    45   41      1    0     1.082   0.977 -99.000   1.016  -0.164   0.482
 H  C    46   41      1    0     1.107   0.976 -99.000   1.016  -0.164   0.482
 N  C    47   42      2    0     1.386   1.291   0.346   1.047  -0.203   0.524
 C  N    48   47      2    0     1.454   1.189   0.906   1.006  -0.302   0.524
 H  N    49   47      1    0     1.018   0.890 -99.000   1.047  -0.176   0.551
 H  C    50   48      1    0     1.094   0.949 -99.000   1.029  -0.179   0.490
 H  C    51   48      1    0     1.097   0.949 -99.000   1.029  -0.179   0.490
          #angl  :   82

 angle atoms        phi0    phi      FC  pi rings
    1    7    3   145.000 123.662   0.083 F   0
    2    5    4   108.600 108.459   0.179 F   0
    2    6    4   108.600 107.599   0.179 F   0
    2    6    5   108.600 108.056   0.179 F   0
    7    8    1   115.000 120.638   0.416 F   0
    7   12    1   115.000 122.171   0.341 F   0
    7   12    8   104.000 117.104   0.183 F   0
    8    9    7   109.500 109.107   0.307 F   0
    8   10    7   109.500 112.344   0.306 F   0
    8   10    9   109.500 110.900   0.305 F   0
    8   13    7   109.500 106.163   0.253 F   0
    8   13    9   109.500 108.364   0.252 F   0
    8   13   10   109.500 109.783   0.251 F   0
    9   11    8   120.000 119.029   0.178 F   0
    9   17    8   120.000 117.533   0.243 F   0
    9   17   11   120.000 123.437   0.176 F   0
   10   14    8   109.500 109.914   0.251 F   0
   10   15    8   109.500 111.390   0.251 F   0
   10   15   14   108.600 107.653   0.208 F   0
   10   16    8   109.500 111.307   0.251 F   0
   10   16   14   108.600 108.010   0.208 F   0
   10   16   15   108.600 108.433   0.208 F   0
   17   18    9   115.000 120.839   0.408 F   0
   17   24    9   115.000 121.227   0.333 F   0
   17   24   18   104.000 116.556   0.181 F   0
   18   19   17   109.500 108.686   0.306 F   0
   18   20   17   109.500 113.565   0.306 F   0
   18   20   19   109.500 113.682   0.305 F   0
   18   25   17   109.500 105.472   0.253 F   0
   18   25   19   109.500 107.187   0.252 F   0
   18   25   20   109.500 107.732   0.251 F   0
   19   21   18   120.000 120.011   0.179 F   0
   19   33   18   120.000 118.748   0.244 F   0
   19   33   21   120.000 121.170   0.178 F   0
   20   22   18   109.500 110.214   0.304 F   0
   20   23   18   109.500 112.402   0.304 F   0
   20   23   22   109.500 111.175   0.305 F   0
   20   26   18   109.500 106.838   0.251 F   0
   20   26   22   109.500 108.360   0.251 F   0
   20   26   23   109.500 107.641   0.251 F   0
   22   27   20   109.500 110.703   0.251 F   0
   22   28   20   109.500 111.563   0.251 F   0
   22   28   27   108.600 107.754   0.208 F   0
   22   29   20   109.500 111.474   0.251 F   0
   22   29   27   108.600 107.215   0.208 F   0
   22   29   28   108.600 107.941   0.208 F   0
   23   30   20   109.500 111.153   0.251 F   0
   23   31   20   109.500 111.189   0.251 F   0
   23   31   30   108.600 107.525   0.208 F   0
   23   32   20   109.500 111.430   0.251 F   0
   23   32   30   108.600 107.335   0.208 F   0
   23   32   31   108.600 108.021   0.208 F   0
   33   34   19   115.000 118.091   0.412 F   0
   33   37   19   115.000 118.943   0.336 F   0
   33   37   34   104.000 113.461   0.182 F   0
   34   35   33   109.500 115.356   0.307 F   0
   34   38   33   109.500 106.845   0.253 F   0
   34   38   35   109.500 109.941   0.251 F   0
   34   39   33   109.500 109.247   0.253 F   0
   34   39   35   109.500 109.483   0.251 F   0
   34   39   38   108.600 105.490   0.209 F   0
   35   36   34   120.000 121.116   0.178 F   0
   35   40   34   120.000 115.546   0.243 F   0
   35   40   36   120.000 123.284   0.177 F   0
   40   41   35   115.000 120.195   0.409 F   0
   40   44   35   115.000 122.388   0.334 F   0
   40   44   41   104.000 115.571   0.182 F   0
   41   42   40   109.500 111.595   0.307 F   0
   41   45   40   109.500 109.601   0.253 F   0
   41   45   42   109.500 112.746   0.252 F   0
   41   46   40   109.500 107.358   0.253 F   0
   41   46   42   109.500 107.897   0.252 F   0
   41   46   45   108.600 107.395   0.209 F   0
   42   43   41   120.000 117.985   0.177 F   0
   42   47   41   120.000 122.447   0.241 F   0
   42   47   43   120.000 119.563   0.174 F   0
   47   48   42   113.000 126.947   0.042 F   0
   47   49   42   113.000 118.421   0.212 F   0
   47   49   48   113.000 113.722   0.105 F   0
   48   50   47   120.000 109.185   0.204 F   0
   48   51   47   120.000 110.585   0.204 F   0
   48   51   50   120.000 106.052   0.167 F   0
 torsion atoms        nrot   rings    phi0    phi      FC
    7    1    8    3   2      0     180.000   1.762   0.634
    7    1   12    3   2      0     180.000 178.277   0.940
    8    7    9    1   3      0     180.000  63.929   0.023
    8    7    9   12   3      0     180.000 112.757   0.032
    8    7   10    1   3      0     180.000 172.664   0.023
    8    7   10   12   3      0     180.000  10.649   0.030
    8    7   13    1   3      0     180.000  52.657   0.033
    8    7   13   12   3      0     180.000 130.657   0.045
    9    8   11    7   3      0     180.000  58.354   0.067
    9    8   11   10   3      0     180.000  65.906   0.078
    9    8   11   13   3      0     180.000 173.530   0.116
    9    8   17    7   3      0     180.000 121.318   0.042
    9    8   17   10   3      0     180.000 114.422   0.049
    9    8   17   13   3      0     180.000   6.142   0.073
   10    8   14    7   3      0     180.000  62.985   0.119
   10    8   14    9   3      0     180.000  59.412   0.147
   10    8   14   13   3      0     180.000 179.132   0.209
   10    8   15    7   3      0     180.000 177.786   0.119
   10    8   15    9   3      0     180.000  59.817   0.147
   10    8   15   13   3      0     180.000  59.903   0.209
   10    8   16    7   3      0     180.000  56.637   0.119
   10    8   16    9   3      0     180.000 179.034   0.147
   10    8   16   13   3      0     180.000  61.247   0.209
   17    9   18    8   2      0     180.000 174.410   0.624
   17    9   18   11   2      0     180.000   5.934   0.846
   17    9   24    8   2      0     180.000   8.268   0.926
   17    9   24   11   2      0     180.000 172.076   1.255
   18   17   19    9   3      0     180.000  61.902   0.023
   18   17   19   24   3      0     180.000 104.862   0.033
   18   17   20    9   3      0     180.000 170.502   0.022
   18   17   20   24   3      0     180.000  22.734   0.031
   18   17   25    9   3      0     180.000  52.760   0.033
   18   17   25   24   3      0     180.000 140.476   0.046
   19   18   21   17   3      0     180.000  73.583   0.066
   19   18   21   20   3      0     180.000  53.946   0.078
   19   18   21   25   3      0     180.000 172.877   0.116
   19   18   33   17   3      0     180.000 103.387   0.042
   19   18   33   20   3      0     180.000 129.084   0.049
   19   18   33   25   3      0     180.000  10.153   0.073
   20   18   22   17   3      0     180.000  62.180   0.076
   20   18   22   17   1      0     180.000  62.180  -0.068
   20   18   22   19   3      0     180.000 172.863   0.093
   20   18   22   25   3      0     180.000  54.244   0.132
   20   18   23   17   3      0     180.000  62.440   0.076
   20   18   23   17   1      0     180.000  62.440  -0.068
   20   18   23   19   3      0     180.000  62.516   0.093
   20   18   23   25   3      0     180.000 178.864   0.132
   20   18   26   17   3      0     180.000 179.705   0.112
   20   18   26   19   3      0     180.000  55.339   0.138
   20   18   26   25   3      0     180.000  63.281   0.196
   22   20   27   18   3      0     180.000  61.463   0.139
   22   20   27   23   3      0     180.000  63.859   0.139
   22   20   27   26   3      0     180.000 178.042   0.207
   22   20   28   18   3      0     180.000 178.547   0.139
   22   20   28   23   3      0     180.000  56.131   0.139
   22   20   28   26   3      0     180.000  61.967   0.207
   22   20   29   18   3      0     180.000  57.790   0.139
   22   20   29   23   3      0     180.000 176.888   0.139
   22   20   29   26   3      0     180.000  58.789   0.207
   23   20   30   18   3      0     180.000  65.312   0.139
   23   20   30   22   3      0     180.000  58.778   0.139
   23   20   30   26   3      0     180.000 177.310   0.207
   23   20   31   18   3      0     180.000  54.443   0.139
   23   20   31   22   3      0     180.000 178.532   0.139
   23   20   31   26   3      0     180.000  62.936   0.207
   23   20   32   18   3      0     180.000 175.013   0.139
   23   20   32   22   3      0     180.000  60.897   0.139
   23   20   32   26   3      0     180.000  57.635   0.207
   33   19   34   18   2      0     180.000 152.286   0.548
   33   19   34   21   2      0     180.000  24.648   0.743
   33   19   37   18   2      0     180.000   8.105   0.813
   33   19   37   21   2      0     180.000 168.829   1.102
   34   33   35   19   3      0     180.000 116.554   0.022
   34   33   35   37   3      0     180.000  97.384   0.032
   34   33   38   19   3      0     180.000   5.981   0.032
   34   33   38   37   3      0     180.000 140.081   0.045
   34   33   39   19   3      0     180.000 119.639   0.032
   34   33   39   37   3      0     180.000  26.423   0.045
   35   34   36   33   3      0     180.000  59.431   0.065
   35   34   36   38   3      0     180.000 179.701   0.114
   35   34   36   39   3      0     180.000  64.251   0.114
   35   34   40   33   3      0     180.000 123.166   0.041
   35   34   40   38   3      0     180.000   2.298   0.072
   35   34   40   39   3      0     180.000 113.151   0.072
   40   35   41   34   2      0     180.000 179.358   0.608
   40   35   41   36   2      0     180.000   2.018   0.823
   40   35   44   34   2      0     180.000  16.801   0.901
   40   35   44   36   2      0     180.000 165.859   1.222
   41   40   42   35   3      0     180.000 107.795   0.022
   41   40   42   44   3      0     180.000  57.103   0.032
   41   40   45   35   3      0     180.000 126.588   0.032
   41   40   45   44   3      0     180.000  68.514   0.045
   41   40   46   35   3      0     180.000  10.240   0.032
   41   40   46   44   3      0     180.000 175.138   0.045
   42   41   43   40   3      0     180.000  44.222   0.066
   42   41   43   45   3      0     180.000 168.083   0.115
   42   41   43   46   3      0     180.000  73.489   0.115
   42   41   47   40   3      0     180.000 136.521   0.041
   42   41   47   45   3      0     180.000  12.661   0.072
   42   41   47   46   3      0     180.000 105.768   0.072
   47   42   48   41   2      0     180.000   3.530   0.341
   47   42   48   43   2      0     180.000 175.715   0.462
   47   42   49   41   2      0     180.000 171.878   0.486
   47   42   49   43   2      0     180.000   7.367   0.659
   48   47   50   42   2      0     180.000 118.940   1.385
   48   47   50   49   2      0     180.000  72.247   1.974
   48   47   51   42   2      0     180.000   2.618   1.385
   48   47   51   49   2      0     180.000 171.431   1.974
 out-of-plane atoms          phi0    phi      FC
    7   12    1    8          0.000  -2.998   0.338
    9   11   17    8          0.000   0.305  23.242
   17   24    9   18          0.000 -11.867   0.033
   19   21   33   18          0.000   2.688  21.800
   33   37   19   34          0.000  31.084   0.254
   35   36   40   34          0.000  -2.400  23.827
   40   44   35   41          0.000  13.919   0.141
   42   43   47   41          0.000  -0.637  28.446
   47   49   42   48          0.000   9.289  -0.049
   48   50   51   47          0.000  55.552   0.551
          #tors  :   118
          #nmol  :   6
          #optfrag :   6

 GFN-FF setup done.

           ------------------------------------------------- 
          |                   G F N - F F                   |
          |          A general generic force-field          |
          |                  Version 1.0.3                  | 
           ------------------------------------------------- 
      * Solvation model:               ALPB
        Solvent                        water
        Parameter file                 internal GFN-FF/ALPB
        Dielectric constant                8.0200E+01
        Reference state                gsolv [1 M gas/solution]
        Free energy shift                  3.6494E-04 Eh       2.2900E-01 kcal/mol
        Temperature                        2.9815E+02 K
        Density                            1.0000E+00 kg/L
        Solvent mass                       1.8000E+01 g/mol
        Interaction kernel             P16
        Born radius scaling (c1)           1.5056E+00
        Born radii integrator          GBOBC
        Born offset                        0.0000E+00 a0       0.0000E+00 AA
        H-bond correction              true
        Ion screening                  false
        Surface tension                    1.0000E-05 Eh       1.5569E+01 dyn/cm
        Grid points                               230 per atom
          Number of HB bonds (bound hydrogen)     538
          Number of HB bonds (unbound hydrogen)   73
          Number of XB bonds                      0

 E+G (total)                   0 d,  0 h,  0 min,  0.001 sec
 distance/D3 list               ...        0 min,  0.000 sec (  0.777%)
 non bonded repulsion           ...        0 min,  0.000 sec (  2.189%)
 dCN                            ...        0 min,  0.000 sec (  5.568%)
 EEQ energy and q               ...        0 min,  0.000 sec (  5.616%)
 D3                             ...        0 min,  0.000 sec (  8.780%)
 EEQ gradient                   ...        0 min,  0.000 sec (  4.637%)
 bonds                          ...        0 min,  0.000 sec (  0.760%)
 bend and torsion               ...        0 min,  0.000 sec (  3.064%)
 bonded ATM                     ...        0 min,  0.000 sec (  1.354%)
 HB/XB (incl list setup)        ...        0 min,  0.000 sec (  7.828%)
 GBSA                           ...        0 min,  0.001 sec ( 62.356%)

         :::::::::::::::::::::::::::::::::::::::::::::::::::::
         ::                     SUMMARY                     ::
         :::::::::::::::::::::::::::::::::::::::::::::::::::::
         :: total energy              -8.547966933832 Eh    ::
         :: total w/o Gsolv           -8.495287684104 Eh    ::
         :: total w/o Gsasa/hb        -8.539524065024 Eh    ::
         :: gradient norm              0.180742903352 Eh/a0 ::
         ::.................................................::
         :: bond energy               -8.649529286376 Eh    ::
         :: angle energy               0.028459891420 Eh    ::
         :: torsion energy             0.016826591833 Eh    ::
         :: repulsion energy           0.527641883509 Eh    ::
         :: electrostat energy        -0.365487572309 Eh    ::
         :: dispersion energy         -0.038294171300 Eh    ::
         :: HB energy                 -0.000308541799 Eh    ::
         :: XB energy                  0.000000000000 Eh    ::
         :: bonded atm energy         -0.014596479081 Eh    ::
         :: external energy            0.000000000000 Eh    ::
         :: -> Gsolv                  -0.052679249727 Eh    ::
         ::    -> Gborn               -0.044236380919 Eh    ::
         ::    -> Gsasa                0.005709133793 Eh    ::
         ::    -> Ghb                 -0.014516941856 Eh    ::
         ::    -> Gshift               0.000364939255 Eh    ::
         :: add. restraining           0.000000000000 Eh    ::
         :: total charge               0.000000000000 e     ::
         ::.................................................::
         :: atomisation energy         0.000000000000 Eh    ::
         :::::::::::::::::::::::::::::::::::::::::::::::::::::

      ----------------------------------------------------------- 
     |                   =====================                   |
     |                        A N C O P T                        |
     |                   =====================                   |
     |               Approximate Normal Coordinate               |
     |                Rational Function Optimizer                |
      ----------------------------------------------------------- 

          ...................................................
          :                      SETUP                      :
          :.................................................:
          :   optimization level         verytight          :
          :   max. optcycles                    10          :
          :   ANC micro-cycles                  10          :
          :   degrees of freedom               147          :
          :.................................................:
          :   RF solver                   davidson          :
          :   write xtbopt.log                true          :
          :   linear?                        false          :
          :   energy convergence         0.1000000E-06 Eh   :
          :   grad. convergence          0.2000000E-03 Eh/α :
          :   maxmium RF displ.          1.0000000          :
          :   Hlow (freq-cutoff)         0.1000000E-01      :
          :   Hmax (freq-cutoff)         5.0000000          :
          :   S6 in model hess.         20.0000000          :
          ...................................................

generating ANC from model Hessian ...
Using GFN-FF Lindh-Hessian
 Shifting diagonal of input Hessian by    0.0000000000000000     
 Lowest  eigenvalues of input Hessian
    0.000000    0.000000    0.000000    0.000000    0.000000    0.000000
    0.019645    0.029768    0.051418    0.056735    0.068022    0.084451
    0.094785    0.114996    0.139417    0.140672    0.149214    0.163033
 Highest eigenvalues
    3.336175    3.462925    3.564837    3.630224    3.873177    4.127831


........................................................................
.............................. CYCLE    1 ..............................
........................................................................
     iter. time                 ...        0 min,  0.001 sec
 * total energy  :    -8.5479669 Eh     change        0.0000000E+00 Eh
   gradient norm :     0.1807429 Eh/α   predicted     0.0000000E+00 (    NaN%)
   displ. norm   :     0.1104338 α      lambda       -0.1436621E-01
   maximum displ.:     0.0414285 α      in ANC's #49, #71, #138, ...

........................................................................
.............................. CYCLE    2 ..............................
........................................................................
     iter. time                 ...        0 min,  0.001 sec
 * total energy  :    -8.5575279 Eh     change       -0.9561008E-02 Eh
   gradient norm :     0.0658413 Eh/α   predicted    -0.7293464E-02 ( -23.72%)
   displ. norm   :     0.0611178 α      lambda       -0.3025489E-02
   maximum displ.:     0.0176645 α      in ANC's #49, #138, #71, ...

........................................................................
.............................. CYCLE    3 ..............................
........................................................................
     iter. time                 ...        0 min,  0.001 sec
 * total energy  :    -8.5591845 Eh     change       -0.1656580E-02 Eh
   gradient norm :     0.0181352 Eh/α   predicted    -0.1518447E-02 (  -8.34%)
   displ. norm   :     0.0219097 α      lambda       -0.1959766E-03
   maximum displ.:     0.0075443 α      in ANC's #1, #4, #2, ...

........................................................................
.............................. CYCLE    4 ..............................
........................................................................
     iter. time                 ...        0 min,  0.001 sec
 * total energy  :    -8.5593302 Eh     change       -0.1456708E-03 Eh
   gradient norm :     0.0093386 Eh/α   predicted    -0.1045203E-03 ( -28.25%)
   displ. norm   :     0.0193148 α      lambda       -0.7774852E-04
   maximum displ.:     0.0084630 α      in ANC's #2, #1, #4, ...

........................................................................
.............................. CYCLE    5 ..............................
........................................................................
     iter. time                 ...        0 min,  0.001 sec
 * total energy  :    -8.5593730 Eh     change       -0.4285623E-04 Eh
   gradient norm :     0.0022454 Eh/α   predicted    -0.3891405E-04 (  -9.20%)
   displ. norm   :     0.0065303 α      lambda       -0.4679333E-05
   maximum displ.:     0.0041209 α      in ANC's #2, #1, #4, ...

........................................................................
.............................. CYCLE    6 ..............................
........................................................................
     iter. time                 ...        0 min,  0.001 sec
 * total energy  :    -8.5593765 Eh     change       -0.3458258E-05 Eh
   gradient norm :     0.0010844 Eh/α   predicted    -0.2344016E-05 ( -32.22%)
   displ. norm   :     0.0158879 α      lambda       -0.3686307E-05
   maximum displ.:     0.0101950 α      in ANC's #2, #1, #3, ...

........................................................................
.............................. CYCLE    7 ..............................
........................................................................
     iter. time                 ...        0 min,  0.001 sec
 * total energy  :    -8.5593795 Eh     change       -0.3030946E-05 Eh
   gradient norm :     0.0015854 Eh/α   predicted    -0.1979080E-05 ( -34.70%)
   displ. norm   :     0.0080652 α      lambda       -0.1547225E-05
   maximum displ.:     0.0049247 α      in ANC's #2, #3, #4, ...

........................................................................
.............................. CYCLE    8 ..............................
........................................................................
     iter. time                 ...        0 min,  0.001 sec
 * total energy  :    -8.5593816 Eh     change       -0.2074454E-05 Eh
   gradient norm :     0.0011728 Eh/α   predicted    -0.8025644E-06 ( -61.31%)
   displ. norm   :     0.0260207 α      lambda       -0.3889283E-05
   maximum displ.:     0.0164978 α      in ANC's #2, #3, #4, ...

........................................................................
.............................. CYCLE    9 ..............................
........................................................................
     iter. time                 ...        0 min,  0.001 sec
 * total energy  :    -8.5593849 Eh     change       -0.3266859E-05 Eh
   gradient norm :     0.0004773 Eh/α   predicted    -0.1996659E-05 ( -38.88%)
   displ. norm   :     0.0042671 α      lambda       -0.3078740E-06
   maximum displ.:     0.0030794 α      in ANC's #2, #3, #4, ...

........................................................................
.............................. CYCLE   10 ..............................
........................................................................
     iter. time                 ...        0 min,  0.001 sec
 * total energy  :    -8.5593852 Eh     change       -0.3668816E-06 Eh
   gradient norm :     0.0003103 Eh/α   predicted    -0.1665827E-06 ( -54.59%)
   displ. norm   :     0.0041421 α      lambda       -0.2380304E-06
   maximum displ.:     0.0031849 α      in ANC's #2, #46, #12, ...

   *** FAILED TO CONVERGE GEOMETRY OPTIMIZATION IN 10 ITERATIONS ***


 ANCopt (total)                0 d,  0 h,  0 min,  0.014 sec
 optimizer setup                ...        0 min,  0.000 sec (  0.968%)
 model hessian                  ...        0 min,  0.000 sec (  3.463%)
 ANC generation                 ...        0 min,  0.001 sec (  9.447%)
 coordinate transformation      ...        0 min,  0.000 sec (  0.444%)
 single point calculation       ...        0 min,  0.010 sec ( 76.721%)
 optimization log               ...        0 min,  0.001 sec (  4.512%)
 hessian update                 ...        0 min,  0.000 sec (  0.650%)
 rational function              ...        0 min,  0.000 sec (  2.377%)

================
 final structure:
================
ATOM      1  C   ALA A   6     -12.354 -14.198   9.364  1.00  0.00           C  
ATOM      2  CB  ALA A   6     -14.291 -15.563   8.447  1.00  0.00           C  
ATOM      3  O   ALA A   6     -12.773 -13.112   9.014  1.00  0.00           O  
ATOM      4  HB1 ALA A   6     -13.703 -15.878   7.610  1.00  0.00           H  
ATOM      5  HB2 ALA A   6     -15.015 -16.323   8.709  1.00  0.00           H  
ATOM      6  HB3 ALA A   6     -14.806 -14.650   8.207  1.00  0.00           H  
ATOM      7  N   ALA A   7     -11.051 -14.549   9.446  1.00  0.00           N  
ATOM      8  CA  ALA A   7     -10.010 -13.586   9.125  1.00  0.00           C  
ATOM      9  C   ALA A   7     -10.108 -13.229   7.660  1.00  0.00           C  
ATOM     10  CB  ALA A   7      -8.624 -14.096   9.468  1.00  0.00           C  
ATOM     11  O   ALA A   7     -10.010 -14.110   6.831  1.00  0.00           O  
ATOM     12  H   ALA A   7     -10.744 -15.495   9.690  1.00  0.00           H  
ATOM     13  HA  ALA A   7     -10.236 -12.687   9.717  1.00  0.00           H  
ATOM     14  HB1 ALA A   7      -8.393 -14.978   8.872  1.00  0.00           H  
ATOM     15  HB2 ALA A   7      -7.862 -13.345   9.257  1.00  0.00           H  
ATOM     16  HB3 ALA A   7      -8.552 -14.373  10.520  1.00  0.00           H  
ATOM     17  N   VAL A   8     -10.308 -11.906   7.339  1.00  0.00           N  
ATOM     18  CA  VAL A   8     -10.290 -11.466   5.955  1.00  0.00           C  
ATOM     19  C   VAL A   8      -8.915 -11.738   5.376  1.00  0.00           C  
ATOM     20  CB  VAL A   8     -10.758 -10.006   5.772  1.00  0.00           C  
ATOM     21  O   VAL A   8      -7.967 -11.053   5.703  1.00  0.00           O  
ATOM     22  CG1 VAL A   8     -12.211  -9.856   6.224  1.00  0.00           C  
ATOM     23  CG2 VAL A   8      -9.851  -9.007   6.488  1.00  0.00           C  
ATOM     24  H   VAL A   8     -10.264 -11.178   8.052  1.00  0.00           H  
ATOM     25  HA  VAL A   8     -11.005 -12.117   5.431  1.00  0.00           H  
ATOM     26  HB  VAL A   8     -10.706  -9.790   4.691  1.00  0.00           H  
ATOM     27 HG11 VAL A   8     -12.312 -10.096   7.282  1.00  0.00           H  
ATOM     28 HG12 VAL A   8     -12.573  -8.838   6.077  1.00  0.00           H  
ATOM     29 HG13 VAL A   8     -12.871 -10.530   5.676  1.00  0.00           H  
ATOM     30 HG21 VAL A   8      -9.896  -9.139   7.567  1.00  0.00           H  
ATOM     31 HG22 VAL A   8      -8.811  -9.131   6.185  1.00  0.00           H  
ATOM     32 HG23 VAL A   8     -10.144  -7.979   6.275  1.00  0.00           H  
ATOM     33  N   GLY A   9      -8.750 -12.818   4.519  1.00  0.00           N  
ATOM     34  CA  GLY A   9      -7.449 -13.467   4.464  1.00  0.00           C  
ATOM     35  C   GLY A   9      -6.778 -13.391   3.148  1.00  0.00           C  
ATOM     36  O   GLY A   9      -7.291 -13.860   2.154  1.00  0.00           O  
ATOM     37  H   GLY A   9      -9.533 -13.457   4.366  1.00  0.00           H  
ATOM     38  HA2 GLY A   9      -6.823 -12.993   5.228  1.00  0.00           H  
ATOM     39  HA3 GLY A   9      -7.554 -14.517   4.760  1.00  0.00           H  
ATOM     40  N   GLY A  10      -5.534 -12.810   3.148  1.00  0.00           N  
ATOM     41  CA  GLY A  10      -4.803 -12.698   1.929  1.00  0.00           C  
ATOM     42  C   GLY A  10      -4.751 -11.270   1.443  1.00  0.00           C  
ATOM     43  O   GLY A  10      -5.765 -10.622   1.473  1.00  0.00           O  
ATOM     44  H   GLY A  10      -5.201 -12.234   3.924  1.00  0.00           H  
ATOM     45  HA2 GLY A  10      -3.812 -13.134   2.078  1.00  0.00           H  
ATOM     46  HA3 GLY A  10      -5.319 -13.307   1.178  1.00  0.00           H  
ATOM     47  N   GLY A  11      -3.544 -10.730   0.968  1.00  0.00           N  
ATOM     48  CA  GLY A  11      -2.302 -11.319   0.805  1.00  0.00           C  
ATOM     49  H   GLY A  11      -3.628  -9.789   0.543  1.00  0.00           H  
ATOM     50  HA2 GLY A  11      -1.538 -10.847   1.405  1.00  0.00           H  
ATOM     51  HA3 GLY A  11      -2.340 -12.371   1.109  1.00  0.00           H  
END

 Bond Distances (Angstroems)
 ---------------------------
C1-O3=1.2143         C1-N7=1.3526         C2-H4=1.0713         C2-H5=1.0810         C2-H6=1.0750         O3-C1=1.2143         
H4-C2=1.0713         H5-C2=1.0810         H6-C2=1.0750         N7-C1=1.3526         N7-C8=1.4538         N7-H12=1.0241        
C8-N7=1.4538         C8-C9=1.5109         C8-C10=1.5161        C8-H13=1.1007        C9-C8=1.5109         C9-O11=1.2134        
C9-N17=1.3766        C10-C8=1.5161        C10-H14=1.0895       C10-H15=1.0907       C10-H16=1.0901       O11-C9=1.2134        
H12-N7=1.0241        H13-C8=1.1007        H14-C10=1.0895       H15-C10=1.0907       H16-C10=1.0901       N17-C9=1.3766        
N17-C18=1.4523       N17-H24=1.0196       C18-N17=1.4523       C18-C19=1.5161       C18-C20=1.5441       C18-H25=1.0999       
C19-C18=1.5161       C19-O21=1.2145       C19-N33=1.3883       C20-C18=1.5441       C20-C22=1.5287       C20-C23=1.5274       
C20-H26=1.1040       O21-C19=1.2145       C22-C20=1.5287       C22-H27=1.0897       C22-H28=1.0904       C22-H29=1.0903       
C23-C20=1.5274       C23-H30=1.0884       C23-H31=1.0903       C23-H32=1.0902       H24-N17=1.0196       H25-C18=1.0999       
H26-C20=1.1040       H27-C22=1.0897       H28-C22=1.0904       H29-C22=1.0903       H30-C23=1.0884       H31-C23=1.0903       
H32-C23=1.0902       N33-C19=1.3883       N33-C34=1.4547       N33-H37=1.0221       C34-N33=1.4547       C34-C35=1.4797       
C34-H38=1.0949       C34-H39=1.0958       C35-C34=1.4797       C35-O36=1.2127       C35-N40=1.3724       O36-C35=1.2127       
H37-N33=1.0221       H38-C34=1.0949       H39-C34=1.0958       N40-C35=1.3724       N40-C41=1.4261       N40-H44=1.0218       
C41-N40=1.4261       C41-C42=1.5090       C41-H45=1.0923       C41-H46=1.0969       C42-C41=1.5090       C42-O43=1.2046       
C42-N47=1.4046       O43-C42=1.2046       H44-N40=1.0218       H45-C41=1.0923       H46-C41=1.0969       N47-C42=1.4046       
N47-C48=1.3844       N47-H49=1.0359       C48-N47=1.3844       C48-H50=1.0799       C48-H51=1.0960       H49-N47=1.0359       
H50-C48=1.0799       H51-C48=1.0960       
 C  H  Rav=1.0903 sigma=0.0079  Rmin=1.0713  Rmax=1.1040    21
 C  C  Rav=1.5165 sigma=0.0176  Rmin=1.4797  Rmax=1.5441     8
 N  H  Rav=1.0247 sigma=0.0058  Rmin=1.0196  Rmax=1.0359     5
 N  C  Rav=1.4066 sigma=0.0358  Rmin=1.3526  Rmax=1.4547    10
 O  C  Rav=1.2119 sigma=0.0037  Rmin=1.2046  Rmax=1.2145     5

 selected bond angles (degree)
 --------------------
N7-C1-O3=125.57                H5-C2-H4=110.48                H6-C2-H4=109.77                H6-C2-H5=109.30                
C8-N7-C1=120.31                H12-N7-C1=122.90               H12-N7-C8=116.74               C9-C8-N7=108.92                
C10-C8-N7=112.45               C10-C8-C9=111.01               H13-C8-N7=105.95               H13-C8-C9=108.38               
H13-C8-C10=109.93              O11-C9-C8=119.08               N17-C9-C8=117.56               N17-C9-O11=123.37              
H14-C10-C8=109.99              H15-C10-C8=111.30              H15-C10-H14=107.65             H16-C10-C8=111.34              
H16-C10-H14=108.01             H16-C10-H15=108.41             

 selected dihedral angles (degree)
 ---------------------------------
C8-N7-C1-O3=  1.12            H12-N7-C1-O3=183.91           C9-C8-N7-C1=295.11            C9-C8-N7-H12=112.49           
C10-C8-N7-C1=171.63           C10-C8-N7-H12=349.01          H13-C8-N7-C1= 51.52           H13-C8-N7-H12=228.90          
O11-C9-C8-N7=301.30           O11-C9-C8-C10= 65.64          O11-C9-C8-H13=186.45          N17-C9-C8-N7=121.17           
N17-C9-C8-C10=245.51          N17-C9-C8-H13=  6.33          H14-C10-C8-N7= 63.05          H14-C10-C8-C9=300.74          
H14-C10-C8-H13=180.84         H15-C10-C8-N7=182.27          H15-C10-C8-C9= 59.96          H15-C10-C8-H13=300.06         
H16-C10-C8-N7=303.35          H16-C10-C8-C9=181.04          H16-C10-C8-H13= 61.14         

 CMA Distance (Angstroems)
 ---------------------------
R(CMA):  7.4361
           -------------------------------------------------
          |                Final Singlepoint                |
           -------------------------------------------------
         :::::::::::::::::::::::::::::::::::::::::::::::::::::
         ::                     SUMMARY                     ::
         :::::::::::::::::::::::::::::::::::::::::::::::::::::
         :: total energy              -8.559385462536 Eh    ::
         :: total w/o Gsolv           -8.506921147788 Eh    ::
         :: total w/o Gsasa/hb        -8.551066325070 Eh    ::
         :: gradient norm              0.000120203163 Eh/a0 ::
         ::.................................................::
         :: bond energy               -8.672181343812 Eh    ::
         :: angle energy               0.026985696113 Eh    ::
         :: torsion energy             0.018715803724 Eh    ::
         :: repulsion energy           0.532855132928 Eh    ::
         :: electrostat energy        -0.365899523705 Eh    ::
         :: dispersion energy         -0.038294083989 Eh    ::
         :: HB energy                 -0.000306020179 Eh    ::
         :: XB energy                  0.000000000000 Eh    ::
         :: bonded atm energy         -0.014401216165 Eh    ::
         :: external energy            0.000000000000 Eh    ::
         :: -> Gsolv                  -0.052464314748 Eh    ::
         ::    -> Gborn               -0.044145177282 Eh    ::
         ::    -> Gsasa                0.005740885222 Eh    ::
         ::    -> Ghb                 -0.014424961943 Eh    ::
         ::    -> Gshift               0.000364939255 Eh    ::
         :: add. restraining           0.005604407298 Eh    ::
         :: total charge              -0.000000000000 e     ::
         ::.................................................::
         :: atomisation energy         0.000000000000 Eh    ::
         :::::::::::::::::::::::::::::::::::::::::::::::::::::

           -------------------------------------------------
          |                Property Printout                |
           -------------------------------------------------
           -------------------------------------------------
          |                Geometry Summary                 |
           -------------------------------------------------

      molecular mass/u    :      356.3980386
   center of mass at/Å    :       -8.6661343     -12.4194029       5.4529953
  moments of inertia/u·Å² :        0.1285894E+04   0.6226840E+04   0.6730477E+04
rotational constants/cm⁻¹ :        0.1310966E-01   0.2707253E-02   0.2504671E-02

 * 44 selected distances

     #   Z          #   Z                                           value/Å
     2   6  C       4   1  H                                      1.0713435
     2   6  C       5   1  H                                      1.0810026
     2   6  C       6   1  H                                      1.0749721
     1   6  C       7   7  N                                      1.3526250
     7   7  N       8   6  C                                      1.4537725
     8   6  C      10   6  C                                      1.5161004
     9   6  C      11   8  O                                      1.2133911
     7   7  N      12   1  H                                      1.0241376
     8   6  C      13   1  H                                      1.1007454
    10   6  C      14   1  H                                      1.0894590
    10   6  C      15   1  H                                      1.0906525
    10   6  C      16   1  H                                      1.0900938
     9   6  C      17   7  N                                      1.3765586
    17   7  N      18   6  C                                      1.4522612
    19   6  C      21   8  O                                      1.2145240
    20   6  C      22   6  C                                      1.5287478 (max)
    20   6  C      23   6  C                                      1.5273968
    17   7  N      24   1  H                                      1.0195994 (min)
    18   6  C      25   1  H                                      1.0998635
    20   6  C      26   1  H                                      1.1040050
    22   6  C      27   1  H                                      1.0897206
    22   6  C      28   1  H                                      1.0903580
    22   6  C      29   1  H                                      1.0902570
    23   6  C      30   1  H                                      1.0883963
    23   6  C      31   1  H                                      1.0903320
    23   6  C      32   1  H                                      1.0901850
    19   6  C      33   7  N                                      1.3882900
    33   7  N      34   6  C                                      1.4547484
    34   6  C      35   6  C                                      1.4796970
    35   6  C      36   8  O                                      1.2126956
    33   7  N      37   1  H                                      1.0221232
    34   6  C      38   1  H                                      1.0949399
    34   6  C      39   1  H                                      1.0958275
    35   6  C      40   7  N                                      1.3724094
    40   7  N      41   6  C                                      1.4261076
    42   6  C      43   8  O                                      1.2046418
    40   7  N      44   1  H                                      1.0217758
    41   6  C      45   1  H                                      1.0922583
    41   6  C      46   1  H                                      1.0968767
    42   6  C      47   7  N                                      1.4045620
    47   7  N      48   6  C                                      1.3843662
    47   7  N      49   1  H                                      1.0358860
    48   6  C      50   1  H                                      1.0798902
    48   6  C      51   1  H                                      1.0959985

 * 5 distinct bonds (by element types)

   Z      Z             #   av. dist./Å        max./Å        min./Å
   1 H    6 C          21     1.0903418     1.1040050     1.0713435
   6 C    6 C           4     1.5129855     1.5287478     1.4796970
   1 H    7 N           5     1.0247044     1.0358860     1.0195994
   6 C    7 N          10     1.4065701     1.4547484     1.3526250
   6 C    8 O           4     1.2113131     1.2145240     1.2046418


optimized geometry written to: xtbopt.pdb


           -------------------------------------------------
          | TOTAL ENERGY               -8.559385462536 Eh   |
          | GRADIENT NORM               0.000120203163 Eh/α |
           -------------------------------------------------
########################################################################
[WARNING] Runtime exception occurred
-1- gfnff_setup: Could not read topology file.
########################################################################

------------------------------------------------------------------------
 unit  open   action     filename
   10 false : read       xtb_settings.inp
   10 false : read       substructure_15.pdb
   10 false : read       xtb_settings.inp
   10 false : written    gfnff_topo
   10 false : written    gfnff_adjacency
   10 false : written    gfnff_charges
   10 false : deleted    .xtboptok
   10 false : replaced   xtbopt.log
   11 false : created    .xtboptok
   11 false : replaced   gfnff_charges
   10 false : replaced   xtbopt.pdb

------------------------------------------------------------------------
 * finished run on 2025/05/27 at 09:37:37.775     
------------------------------------------------------------------------
 total:
 * wall-time:     0 d,  0 h,  0 min,  0.021 sec
 *  cpu-time:     0 d,  0 h,  0 min,  0.021 sec
 * ratio c/w:     0.999 speedup
 SCF:
 * wall-time:     0 d,  0 h,  0 min,  0.001 sec
 *  cpu-time:     0 d,  0 h,  0 min,  0.001 sec
 * ratio c/w:     1.000 speedup
 ANC optimizer:
 * wall-time:     0 d,  0 h,  0 min,  0.015 sec
 *  cpu-time:     0 d,  0 h,  0 min,  0.015 sec
 * ratio c/w:     0.999 speedup

