      -----------------------------------------------------------      
     |                   =====================                   |     
     |                           x T B                           |     
     |                   =====================                   |     
     |                         S. Grimme                         |     
     |          Mulliken Center for Theoretical Chemistry        |     
     |                    University of Bonn                     |     
      -----------------------------------------------------------      

   * xtb version 6.6.1 (8d0f1dd) compiled by 'conda@1efc2f54142f' on 2023-08-01

   xtb is free software: you can redistribute it and/or modify it under
   the terms of the GNU Lesser General Public License as published by
   the Free Software Foundation, either version 3 of the License, or
   (at your option) any later version.
   
   xtb is distributed in the hope that it will be useful,
   but WITHOUT ANY WARRANTY; without even the implied warranty of
   MERCHANTABILITY or FITNESS FOR A PARTICULAR PURPOSE.  See the
   GNU Lesser General Public License for more details.
   
   Cite this work as:
   * C. Bannwarth, E. Caldeweyher, S. Ehlert, A. Hansen, P. Pracht,
     J. Seibert, S. Spicher, S. Grimme, WIREs Comput. Mol. Sci., 2020, 11,
     e01493. DOI: 10.1002/wcms.1493
   
   for GFN2-xTB:
   * C. Bannwarth, S. Ehlert and S. Grimme., J. Chem. Theory Comput., 2019,
     15, 1652-1671. DOI: 10.1021/acs.jctc.8b01176
   for GFN1-xTB:
   * S. Grimme, C. Bannwarth, P. Shushkov, J. Chem. Theory Comput., 2017,
     13, 1989-2009. DOI: 10.1021/acs.jctc.7b00118
   for GFN0-xTB:
   * P. Pracht, E. Caldeweyher, S. Ehlert, S. Grimme, ChemRxiv, 2019, preprint.
     DOI: 10.26434/chemrxiv.8326202.v1
   for GFN-FF:
   * S. Spicher and S. Grimme, Angew. Chem. Int. Ed., 2020, 59, 15665-15673.
     DOI: 10.1002/anie.202004239
   
   for ALPB and GBSA implicit solvation:
   * S. Ehlert, M. Stahn, S. Spicher, S. Grimme, J. Chem. Theory Comput.,
     2021, 17, 4250-4261. DOI: 10.1021/acs.jctc.1c00471
   
   for DFT-D4:
   * E. Caldeweyher, C. Bannwarth and S. Grimme, J. Chem. Phys., 2017,
     147, 034112. DOI: 10.1063/1.4993215
   * E. Caldeweyher, S. Ehlert, A. Hansen, H. Neugebauer, S. Spicher,
     C. Bannwarth and S. Grimme, J. Chem. Phys., 2019, 150, 154122.
     DOI: 10.1063/1.5090222
   * E. Caldeweyher, J.-M. Mewes, S. Ehlert and S. Grimme, Phys. Chem. Chem. Phys.
     2020, 22, 8499-8512. DOI: 10.1039/D0CP00502A
   
   for sTDA-xTB:
   * S. Grimme and C. Bannwarth, J. Chem. Phys., 2016, 145, 054103.
     DOI: 10.1063/1.4959605
   
   in the mass-spec context:
   * V. Asgeirsson, C. Bauer and S. Grimme, Chem. Sci., 2017, 8, 4879.
     DOI: 10.1039/c7sc00601b
   * J. Koopman and S. Grimme, ACS Omega 2019, 4, 12, 15120-15133.
     DOI: 10.1021/acsomega.9b02011
   
   for metadynamics refer to:
   * S. Grimme, J. Chem. Theory Comput., 2019, 155, 2847-2862
     DOI: 10.1021/acs.jctc.9b00143
   
   for SPH calculations refer to:
   * S. Spicher and S. Grimme, J. Chem. Theory Comput., 2021, 17, 1701-1714
     DOI: 10.1021/acs.jctc.0c01306
   
   with help from (in alphabetical order)
   P. Atkinson, C. Bannwarth, F. Bohle, G. Brandenburg, E. Caldeweyher
   M. Checinski, S. Dohm, S. Ehlert, S. Ehrlich, I. Gerasimov, C. Hölzer
   A. Katbashev, J. Koopman, C. Lavigne, S. Lehtola, F. März, M. Müller,
   F. Musil, H. Neugebauer, J. Pisarek, C. Plett, P. Pracht, F. Pultar,
   J. Seibert, P. Shushkov, S. Spicher, M. Stahn, M. Steiner, T. Strunk,
   J. Stückrath, T. Rose, and J. Unsleber
   
 * started run on 2025/05/27 at 09:37:45.840     

           -------------------------------------------------
          |                Calculation Setup                |
           -------------------------------------------------

          program call               : xtb substructure_32.pdb --gfnff --input xtb_settings.inp --opt vtight --alpb water --verbose
          coordinate file            : substructure_32.pdb
          xtbhome directory          : /home/dargen3
          path for xtb               : /home/dargen3
          xcontrol input file        : xtb_settings.inp
          omp threads                :                     1

$$$$$$$$$$$$$$$$$$$$$$$$$$$$$$$$$$$$$$$$$$$$$$$$$$$$$$$$$$$$$$$$$$$$$$$$
 CONSTRAINTS & SCANS: DEBUG SECTION
$$$$$$$$$$$$$$$$$$$$$$$$$$$$$$$$$$$$$$$$$$$$$$$$$$$$$$$$$$$$$$$$$$$$$$$$
   ID    Z sym.   atoms
    1    6  C     1, 2, 8-10, 18-20, 22, 23, 34, 35, 41, 42, 48
    2    8  O     3, 11, 21, 36, 43
    3    1  H     4-6, 12-16, 24-32, 37-39, 44-46, 49-51
    4    7  N     7, 17, 33, 40, 47
> constrain
-> atoms: 1, 2, 3, 4, 5, 6, 7, 8, 9, 10, 11, 12, 13, 14, 15, 16, 17, 18, 19, 20, 21, 22, 23, 24, 25, 26, 27, 28, 29, 30, 31, 32, 34, 40, 41, 42, 43, 44, 45, 46, 47, 48, 49, 50, 51
--> 1: 1
--> 2: 2
--> 3: 3
--> 4: 4
--> 5: 5
--> 6: 6
--> 7: 7
--> 8: 8
--> 9: 9
--> 10: 10
--> 11: 11
--> 12: 12
--> 13: 13
--> 14: 14
--> 15: 15
--> 16: 16
--> 17: 17
--> 18: 18
--> 19: 19
--> 20: 20
--> 21: 21
--> 22: 22
--> 23: 23
--> 24: 24
--> 25: 25
--> 26: 26
--> 27: 27
--> 28: 28
--> 29: 29
--> 30: 30
--> 31: 31
--> 32: 32
--> 33: 34
--> 34: 40
--> 35: 41
--> 36: 42
--> 37: 43
--> 38: 44
--> 39: 45
--> 40: 46
--> 41: 47
--> 42: 48
--> 43: 49
--> 44: 50
--> 45: 51
-> force constant=1.0
$$$$$$$$$$$$$$$$$$$$$$$$$$$$$$$$$$$$$$$$$$$$$$$$$$$$$$$$$$$$$$$$$$$$$$$$

molecular fragmentation (1/2 indicates fragments):
121222111111111111111111111111111111111111111111111
# atoms in fragment 1/2:    47     4
 fragment masses (1/2) :      341.36       15.03
CMA distance (Bohr)    :  14.049
constraining FC (au)   :  1.0000
           -------------------------------------------------
          |                   Constraints                   |
           -------------------------------------------------

 * 45 constrained atom positions
   positions refering to input geometry

     #   Z                                   position/Å      displ./Å
     1   6 C    -12.3740011   -14.2110013     9.3420009     0.0000000
     2   6 C    -14.2790013   -15.5570014     8.4720008     0.0000000
     3   8 O    -12.7640012   -13.1090012     9.0190008     0.0000000
     4   1 H    -13.7050013   -15.8780015     7.6020007     0.0000000
     5   1 H    -15.0190014   -16.3250015     8.7000008     0.0000000
     6   1 H    -14.8110014   -14.6460014     8.1980008     0.0000000
     7   7 N    -11.0460010   -14.5430013     9.4560009     0.0000000
     8   6 C    -10.0120009   -13.5880013     9.1230008     0.0000000
     9   6 C    -10.1310009   -13.2300012     7.6570007     0.0000000
    10   6 C     -8.6210008   -14.1000013     9.4440009     0.0000000
    11   8 O    -10.0000009   -14.1080013     6.8290006     0.0000000
    12   1 H    -10.7440010   -15.4860014     9.7050009     0.0000000
    13   1 H    -10.2250009   -12.6850012     9.7170009     0.0000000
    14   1 H     -8.4050008   -14.9860014     8.8480008     0.0000000
    15   1 H     -7.8600007   -13.3540012     9.2140009     0.0000000
    16   1 H     -8.5320008   -14.3710013    10.4960010     0.0000000
    17   7 N    -10.3820010   -11.9150011     7.3340007     0.0000000
    18   6 C    -10.2890010   -11.4620011     5.9580006     0.0000000
    19   6 C     -8.8830008   -11.7510011     5.4590005     0.0000000
    20   6 C    -10.7190010    -9.9970009     5.7580005     0.0000000
    21   8 O     -7.9390007   -11.1990010     5.9890006     0.0000000
    22   6 C    -12.1820011    -9.8150009     6.1570006     0.0000000
    23   6 C     -9.8140009    -9.0210008     6.5090006     0.0000000
    24   1 H    -10.3100010   -11.1850010     8.0420007     0.0000000
    25   1 H    -10.9810010   -12.1050011     5.3870005     0.0000000
    26   1 H    -10.6230010    -9.7790009     4.6800004     0.0000000
    27   1 H    -12.3270011   -10.0560009     7.2100007     0.0000000
    28   1 H    -12.5150012    -8.7880008     6.0040006     0.0000000
    29   1 H    -12.8380012   -10.4710010     5.5830005     0.0000000
    30   1 H     -9.9060009    -9.1480008     7.5860007     0.0000000
    31   1 H     -8.7650008    -9.1750009     6.2500006     0.0000000
    32   1 H    -10.0680009    -7.9850007     6.2820006     0.0000000
    34   6 C     -7.4510007   -13.4620012     4.4550004     0.0000000
    40   7 N     -5.5780005   -12.7260012     3.1260003     0.0000000
    41   6 C     -4.7940004   -12.6990012     1.9410002     0.0000000
    42   6 C     -4.7710004   -11.3200011     1.3270001     0.0000000
    43   8 O     -5.8220005   -10.7170010     1.2450001     0.0000000
    44   1 H     -5.3840005   -11.9910011     3.8090004     0.0000000
    45   1 H     -3.8010004   -13.0740012     2.1620002     0.0000000
    46   1 H     -5.2590005   -13.3910012     1.2180001     0.0000000
    47   7 N     -3.6090003   -10.7360010     0.8540001     0.0000000
    48   6 C     -2.2890002   -11.3470011     0.7820001     0.0000000
    49   1 H     -3.6810003    -9.8570009     0.3480000     0.0000000
    50   1 H     -1.5970001   -10.7840010     1.4150001     0.0000000
    51   1 H     -2.3130002   -12.3670011     1.1820001     0.0000000

     applying 990 atom pairwise harmonic potentials
       applied force constant per pair:     0.0227273
     effective force constant per atom:     1.0000000
         constraining energy/grad norm:     0.0000000     0.0000000

     total constraint energy/grad norm:     0.0000000     0.0000000

          charge from pdb residues: 0

          entering GFN-FF setup routine... 51

          ==================== Thresholds ====================
          CN  :   150.00000
          rep :   500.00000
          disp:  2500.00000
          HB1 :   250.00000
          HB2 :   450.00000

          Pauling EN used:
          Z : 1  EN :  2.20
          Z : 6  EN :  2.55
          Z : 7  EN :  3.04
          Z : 8  EN :  3.44
          electric field strengths (au): 0.000

           ------------------------------------------------- 
          |           Force Field Initialization            |
           ------------------------------------------------- 

          distances ...
          ----------------------------------------
          generating topology and atomic info file ...
          pair mat ...
          computing topology distances matrix with Floyd-Warshall algo ...
          making topology EEQ charges ...
          #fragments for EEQ constrain from pdb file: 6
          ----------------------------------------
          generating topology and atomic info file ...
          pair mat ...
          computing topology distances matrix with Floyd-Warshall algo ...
          making topology EEQ charges ...
          #fragments for EEQ constrain from pdb file: 6
          rings ...
          # BATM   444
          # H in HB   18
          doing iterative Hueckel for 6 subsystem(s) ...
          iterative Hueckel run to get P ...
Hueckel system :  1 charge :   0 ndim/Nel :    3    3   eps(HOMO/LUMO)   -0.953507   -0.953507
Hueckel system :  3 charge :   0 ndim/Nel :    3    4   eps(HOMO/LUMO)   -0.894229   -0.894229
Hueckel system :  4 charge :   0 ndim/Nel :    3    4   eps(HOMO/LUMO)   -0.920171   -0.920171
Hueckel system :  5 charge :   0 ndim/Nel :    3    4   eps(HOMO/LUMO)   -0.911777   -0.911777
Hueckel system :  6 charge :   0 ndim/Nel :    4    5   eps(HOMO/LUMO)    1.305464    1.305464
WARNING: probably wrong pi occupation for system 6. Second attempt with Nel=Nel-1!
 at,nb,topo%hyb,Npiel:          42  C             3           2           1
 at,nb,topo%hyb,Npiel:          43  O             1           2           1
 at,nb,topo%hyb,Npiel:          47  N             3           3           2
 at,nb,topo%hyb,Npiel:          48  C             3           2           1

          eigenvalues
 #    :           1          2          3          4
 occ. :        2.000      1.987      0.013      0.000
 eps  :        -4.348     -2.183      1.305      3.390
Hueckel system :  6 charge :   0 ndim/Nel :    4    4   eps(HOMO/LUMO)   -2.182611    1.305464

  atom   neighbors  erfCN metchar sp-hybrid imet pi  qest     coordinates
    1   C      2    1.94   0.00        -2    0    1  -0.011  -23.383471  -26.854898   17.653821
    2   C      3    2.78   0.00         3    0    0  -0.069  -26.983399  -29.398469   16.009760
    3   O      1    0.98   0.00         2    0    1  -0.247  -24.120464  -24.772420   17.043440
    4   H      1    0.97   0.00         0    0    0   0.109  -25.898697  -30.005071   14.365698
    5   H      1    0.97   0.00         0    0    0   0.109  -28.381797  -30.849779   16.440617
    6   H      1    0.97   0.00         0    0    0   0.109  -27.988734  -27.676929   15.491975
    7   N      3    2.79   0.00        -3    0    1  -0.114  -20.873915  -27.482287   17.869250
    8   C      4    3.49   0.00         3    0    0   0.028  -18.919938  -25.677599   17.239971
    9   C      3    2.80   0.00         2    0    1   0.164  -19.144815  -25.001077   14.469633
   10   C      4    3.49   0.00         3    0    0  -0.058  -16.291329  -26.645138   17.846574
   11   O      1    0.98   0.00         2    0    1  -0.386  -18.897261  -26.660256   12.904940
   12   H      1    0.98   0.00         0    0    0   0.119  -20.303217  -29.264299   18.339792
   13   H      1    0.97   0.01         0    0    0   0.062  -19.322450  -23.971176   18.362469
   14   H      1    0.97   0.00         0    0    0   0.062  -15.883148  -28.319436   16.720297
   15   H      1    0.97   0.00         0    0    0   0.062  -14.853247  -25.235403   17.411937
   16   H      1    0.97   0.00         0    0    0   0.062  -16.123143  -27.157254   19.834565
   17   N      3    2.79   0.00        -3    0    1  -0.192  -19.619137  -22.516087   13.859251
   18   C      4    3.49   0.00         3    0    0   0.030  -19.443392  -21.660041   11.258988
   19   C      3    2.80   0.00         2    0    1   0.140  -16.786437  -22.206172   10.316015
   20   C      4    3.48   0.00         3    0    0  -0.013  -20.255974  -18.891592   10.881043
   21   O      1    0.98   0.00         2    0    1  -0.392  -15.002536  -21.163043   11.317570
   22   C      4    3.49   0.00         3    0    0  -0.059  -23.020644  -18.547662   11.635044
   23   C      4    3.49   0.00         3    0    0  -0.059  -18.545772  -17.047219   12.300227
   24   H      1    0.98   0.00         0    0    0   0.129  -19.483076  -21.136587   15.197177
   25   H      1    0.97   0.01         0    0    0   0.056  -20.751083  -22.875135   10.179955
   26   H      1    0.97   0.01         0    0    0   0.051  -20.074561  -18.479632    8.843918
   27   H      1    0.97   0.00         0    0    0   0.052  -23.294654  -19.003086   13.624925
   28   H      1    0.97   0.00         0    0    0   0.052  -23.649922  -16.606913   11.345916
   29   H      1    0.97   0.00         0    0    0   0.052  -24.260304  -19.787322   10.550341
   30   H      1    0.97   0.00         0    0    0   0.052  -18.719627  -17.287215   14.335462
   31   H      1    0.97   0.00         0    0    0   0.052  -16.563449  -17.338237   11.810788
   32   H      1    0.97   0.00         0    0    0   0.052  -19.025763  -15.089463   11.871260
   33   N      3    2.79   0.00        -3    0    1  -0.136  -16.419830  -23.993853    8.426289
   34   C      4    3.50   0.00         3    0    0   0.003  -14.080349  -25.439493    8.418730
   35   C      3    2.80   0.00         2    0    1   0.173  -12.719747  -25.454611    5.988542
   36   O      1    0.98   0.00         2    0    1  -0.361  -13.486975  -26.684823    4.212200
   37   H      1    0.98   0.00         0    0    0   0.143  -17.933501  -24.993518    7.762995
   38   H      1    0.97   0.01         0    0    0   0.089  -12.869035  -24.645808    9.905944
   39   H      1    0.97   0.01         0    0    0   0.089  -14.490420  -27.391580    9.004545
   40   N      3    2.80   0.00        -3    0    1  -0.164  -10.540892  -24.048655    5.907284
   41   C      4    3.50   0.00         3    0    0   0.007   -9.059347  -23.997632    3.667958
   42   C      3    2.79   0.00         2    0    1   0.194   -9.015883  -21.391700    2.507667
   43   O      1    0.98   0.00         2    0    1  -0.360  -11.001985  -20.252195    2.352709
   44   H      1    0.98   0.00         0    0    0   0.147  -10.174285  -22.659706    7.197967
   45   H      1    0.97   0.00         0    0    0   0.088   -7.182849  -24.706279    4.085588
   46   H      1    0.97   0.01         0    0    0   0.088   -9.938070  -25.305323    2.301686
   47   N      3    2.79   0.00         3    0    1  -0.225   -6.820022  -20.288100    1.613826
   48   C      3    2.78   0.00         2    0    1  -0.008   -4.325583  -21.442722    1.477766
   49   H      1    0.98   0.00         0    0    0   0.123   -6.956082  -18.627030    0.657625
   50   H      1    0.97   0.00         0    0    0   0.055   -3.017893  -20.378807    2.673962
   51   H      1    0.97   0.00         0    0    0   0.055   -4.370937  -23.370243    2.233656

molecular fragment  # atoms  topo charge
       1             6             0.000
       2            10             0.000
       3            16            -0.000
       4             7             0.000
       5             7             0.000
       6             5            -0.000


          #atoms :   51
          #bonds :   49

 bond atoms        type  in ring    R      R0    piBO    fqq  kbond(tot)  alp
 O  C     3    1      2    0     1.213   0.997   0.792   1.002  -0.240   0.584
 H  C     4    2      1    0     1.091   0.938 -99.000   1.047  -0.169   0.482
 H  C     5    2      1    0     1.091   0.938 -99.000   1.047  -0.169   0.482
 H  C     6    2      1    0     1.090   0.938 -99.000   1.047  -0.169   0.482
 N  C     7    1      2    0     1.374   1.214   0.509   1.010  -0.227   0.524
 C  N     8    7      1    0     1.446   1.326 -99.000   1.045  -0.153   0.496
 C  C     9    8      1    0     1.514   1.332 -99.000   1.000  -0.160   0.475
 C  C    10    8      1    0     1.517   1.371 -99.000   1.040  -0.154   0.468
 O  C    11    9      2    0     1.214   1.031   0.857   1.047  -0.262   0.584
 H  N    12    7      1    0     1.021   0.890 -99.000   1.047  -0.176   0.551
 H  C    13    8      1    0     1.102   0.976 -99.000   1.007  -0.162   0.482
 H  C    14   10      1    0     1.089   0.976 -99.000   1.046  -0.168   0.482
 H  C    15   10      1    0     1.090   0.976 -99.000   1.046  -0.168   0.482
 H  C    16   10      1    0     1.090   0.976 -99.000   1.046  -0.168   0.482
 N  C    17    9      2    0     1.377   1.263   0.502   1.047  -0.234   0.524
 C  N    18   17      1    0     1.452   1.326 -99.000   1.047  -0.153   0.496
 C  C    19   18      1    0     1.520   1.332 -99.000   1.001  -0.160   0.475
 C  C    20   18      1    0     1.540   1.370 -99.000   1.028  -0.153   0.468
 O  C    21   19      2    0     1.215   1.030   0.860   1.047  -0.262   0.584
 C  C    22   20      1    0     1.527   1.370 -99.000   1.014  -0.151   0.468
 C  C    23   20      1    0     1.528   1.370 -99.000   1.014  -0.151   0.468
 H  N    24   17      1    0     1.019   0.890 -99.000   1.047  -0.176   0.551
 H  C    25   18      1    0     1.104   0.976 -99.000   1.007  -0.162   0.482
 H  C    26   20      1    0     1.104   0.976 -99.000   1.031  -0.166   0.482
 H  C    27   22      1    0     1.090   0.976 -99.000   1.045  -0.168   0.482
 H  C    28   22      1    0     1.090   0.976 -99.000   1.045  -0.168   0.482
 H  C    29   22      1    0     1.091   0.976 -99.000   1.045  -0.168   0.482
 H  C    30   23      1    0     1.088   0.976 -99.000   1.045  -0.168   0.482
 H  C    31   23      1    0     1.091   0.976 -99.000   1.045  -0.168   0.482
 H  C    32   23      1    0     1.091   0.976 -99.000   1.045  -0.168   0.482
 N  C    33   19      2    0     1.390   1.264   0.496   1.047  -0.233   0.524
 C  N    34   33      1    0     1.455   1.326 -99.000   1.029  -0.150   0.496
 C  C    35   34      1    0     1.474   1.333 -99.000   1.017  -0.163   0.475
 O  C    36   35      2    0     1.213   1.031   0.857   1.047  -0.262   0.584
 H  N    37   33      1    0     1.022   0.890 -99.000   1.047  -0.176   0.551
 H  C    38   34      1    0     1.098   0.977 -99.000   1.020  -0.164   0.482
 H  C    39   34      1    0     1.100   0.977 -99.000   1.020  -0.164   0.482
 N  C    40   35      2    0     1.373   1.264   0.502   1.047  -0.234   0.524
 C  N    41   40      1    0     1.421   1.326 -99.000   1.036  -0.151   0.496
 C  C    42   41      1    0     1.510   1.332 -99.000   1.009  -0.162   0.475
 O  C    43   42      2    0     1.214   1.018   0.930   1.047  -0.274   0.584
 H  N    44   40      1    0     1.022   0.890 -99.000   1.047  -0.176   0.551
 H  C    45   41      1    0     1.084   0.977 -99.000   1.016  -0.164   0.482
 H  C    46   41      1    0     1.104   0.977 -99.000   1.016  -0.164   0.482
 N  C    47   42      2    0     1.384   1.291   0.346   1.047  -0.203   0.524
 C  N    48   47      2    0     1.456   1.189   0.906   1.006  -0.302   0.524
 H  N    49   47      1    0     1.017   0.890 -99.000   1.047  -0.176   0.551
 H  C    50   48      1    0     1.094   0.949 -99.000   1.029  -0.179   0.490
 H  C    51   48      1    0     1.096   0.949 -99.000   1.029  -0.179   0.490
          #angl  :   82

 angle atoms        phi0    phi      FC  pi rings
    1    7    3   145.000 123.547   0.083 F   0
    2    5    4   108.600 108.459   0.179 F   0
    2    6    4   108.600 107.599   0.179 F   0
    2    6    5   108.600 108.056   0.179 F   0
    7    8    1   115.000 120.827   0.416 F   0
    7   12    1   115.000 121.967   0.341 F   0
    7   12    8   104.000 117.033   0.183 F   0
    8    9    7   109.500 108.839   0.307 F   0
    8   10    7   109.500 112.584   0.306 F   0
    8   10    9   109.500 110.911   0.305 F   0
    8   13    7   109.500 106.191   0.253 F   0
    8   13    9   109.500 108.248   0.252 F   0
    8   13   10   109.500 109.873   0.251 F   0
    9   11    8   120.000 118.752   0.178 F   0
    9   17    8   120.000 117.859   0.243 F   0
    9   17   11   120.000 123.389   0.176 F   0
   10   14    8   109.500 109.914   0.251 F   0
   10   15    8   109.500 111.381   0.251 F   0
   10   15   14   108.600 107.619   0.208 F   0
   10   16    8   109.500 111.291   0.251 F   0
   10   16   14   108.600 108.036   0.208 F   0
   10   16   15   108.600 108.467   0.208 F   0
   17   18    9   115.000 120.572   0.408 F   0
   17   24    9   115.000 120.529   0.333 F   0
   17   24   18   104.000 115.487   0.181 F   0
   18   19   17   109.500 108.131   0.306 F   0
   18   20   17   109.500 113.711   0.306 F   0
   18   20   19   109.500 113.369   0.305 F   0
   18   25   17   109.500 105.569   0.253 F   0
   18   25   19   109.500 107.421   0.252 F   0
   18   25   20   109.500 108.178   0.251 F   0
   19   21   18   120.000 119.283   0.179 F   0
   19   33   18   120.000 119.652   0.244 F   0
   19   33   21   120.000 120.960   0.178 F   0
   20   22   18   109.500 110.300   0.304 F   0
   20   23   18   109.500 112.235   0.304 F   0
   20   23   22   109.500 111.270   0.305 F   0
   20   26   18   109.500 106.882   0.251 F   0
   20   26   22   109.500 108.352   0.251 F   0
   20   26   23   109.500 107.592   0.251 F   0
   22   27   20   109.500 110.700   0.251 F   0
   22   28   20   109.500 111.599   0.251 F   0
   22   28   27   108.600 107.649   0.208 F   0
   22   29   20   109.500 111.524   0.251 F   0
   22   29   27   108.600 107.180   0.208 F   0
   22   29   28   108.600 107.992   0.208 F   0
   23   30   20   109.500 111.205   0.251 F   0
   23   31   20   109.500 111.250   0.251 F   0
   23   31   30   108.600 107.434   0.208 F   0
   23   32   20   109.500 111.498   0.251 F   0
   23   32   30   108.600 107.286   0.208 F   0
   23   32   31   108.600 107.969   0.208 F   0
   33   34   19   115.000 118.581   0.412 F   0
   33   37   19   115.000 119.332   0.336 F   0
   33   37   34   104.000 113.183   0.182 F   0
   34   35   33   109.500 114.887   0.307 F   0
   34   38   33   109.500 107.065   0.253 F   0
   34   38   35   109.500 110.007   0.251 F   0
   34   39   33   109.500 108.967   0.253 F   0
   34   39   35   109.500 109.702   0.251 F   0
   34   39   38   108.600 105.797   0.209 F   0
   35   36   34   120.000 121.025   0.178 F   0
   35   40   34   120.000 115.764   0.243 F   0
   35   40   36   120.000 123.197   0.177 F   0
   40   41   35   115.000 119.982   0.409 F   0
   40   44   35   115.000 121.888   0.334 F   0
   40   44   41   104.000 116.034   0.182 F   0
   41   42   40   109.500 111.401   0.307 F   0
   41   45   40   109.500 109.191   0.253 F   0
   41   45   42   109.500 112.636   0.252 F   0
   41   46   40   109.500 107.574   0.253 F   0
   41   46   42   109.500 108.225   0.252 F   0
   41   46   45   108.600 107.612   0.209 F   0
   42   43   41   120.000 117.892   0.177 F   0
   42   47   41   120.000 122.499   0.241 F   0
   42   47   43   120.000 119.607   0.174 F   0
   47   48   42   113.000 126.936   0.042 F   0
   47   49   42   113.000 118.389   0.212 F   0
   47   49   48   113.000 113.720   0.105 F   0
   48   50   47   120.000 109.199   0.204 F   0
   48   51   47   120.000 110.646   0.204 F   0
   48   51   50   120.000 106.361   0.167 F   0
 torsion atoms        nrot   rings    phi0    phi      FC
    7    1    8    3   2      0     180.000   3.193   0.634
    7    1   12    3   2      0     180.000 178.286   0.940
    8    7    9    1   3      0     180.000  62.202   0.023
    8    7    9   12   3      0     180.000 113.126   0.032
    8    7   10    1   3      0     180.000 174.406   0.023
    8    7   10   12   3      0     180.000  10.266   0.030
    8    7   13    1   3      0     180.000  54.131   0.033
    8    7   13   12   3      0     180.000 130.541   0.045
    9    8   11    7   3      0     180.000  61.281   0.067
    9    8   11   10   3      0     180.000  63.104   0.078
    9    8   11   13   3      0     180.000 176.288   0.116
    9    8   17    7   3      0     180.000 118.813   0.042
    9    8   17   10   3      0     180.000 116.801   0.049
    9    8   17   13   3      0     180.000   3.806   0.073
   10    8   14    7   3      0     180.000  62.556   0.119
   10    8   14    9   3      0     180.000  59.674   0.147
   10    8   14   13   3      0     180.000 179.313   0.209
   10    8   15    7   3      0     180.000 178.263   0.119
   10    8   15    9   3      0     180.000  59.507   0.147
   10    8   15   13   3      0     180.000  60.133   0.209
   10    8   16    7   3      0     180.000  57.088   0.119
   10    8   16    9   3      0     180.000 179.318   0.147
   10    8   16   13   3      0     180.000  61.042   0.209
   17    9   18    8   2      0     180.000 169.761   0.624
   17    9   18   11   2      0     180.000  10.140   0.846
   17    9   24    8   2      0     180.000  11.543   0.926
   17    9   24   11   2      0     180.000 168.358   1.255
   18   17   19    9   3      0     180.000  58.175   0.023
   18   17   19   24   3      0     180.000 101.087   0.033
   18   17   20    9   3      0     180.000 174.980   0.022
   18   17   20   24   3      0     180.000  25.758   0.031
   18   17   25    9   3      0     180.000  56.550   0.033
   18   17   25   24   3      0     180.000 144.188   0.046
   19   18   21   17   3      0     180.000  63.172   0.066
   19   18   21   20   3      0     180.000  63.872   0.078
   19   18   21   25   3      0     180.000 176.672   0.116
   19   18   33   17   3      0     180.000 113.135   0.042
   19   18   33   20   3      0     180.000 119.822   0.049
   19   18   33   25   3      0     180.000   0.365   0.073
   20   18   22   17   3      0     180.000  61.380   0.076
   20   18   22   17   1      0     180.000  61.380  -0.068
   20   18   22   19   3      0     180.000 174.563   0.093
   20   18   22   25   3      0     180.000  55.540   0.132
   20   18   23   17   3      0     180.000  63.305   0.076
   20   18   23   17   1      0     180.000  63.305  -0.068
   20   18   23   19   3      0     180.000  60.752   0.093
   20   18   23   25   3      0     180.000 179.774   0.132
   20   18   26   17   3      0     180.000 178.967   0.112
   20   18   26   19   3      0     180.000  56.977   0.138
   20   18   26   25   3      0     180.000  62.046   0.196
   22   20   27   18   3      0     180.000  61.299   0.139
   22   20   27   23   3      0     180.000  63.937   0.139
   22   20   27   26   3      0     180.000 177.974   0.207
   22   20   28   18   3      0     180.000 178.821   0.139
   22   20   28   23   3      0     180.000  55.943   0.139
   22   20   28   26   3      0     180.000  62.145   0.207
   22   20   29   18   3      0     180.000  57.940   0.139
   22   20   29   23   3      0     180.000 176.824   0.139
   22   20   29   26   3      0     180.000  58.735   0.207
   23   20   30   18   3      0     180.000  65.869   0.139
   23   20   30   22   3      0     180.000  58.279   0.139
   23   20   30   26   3      0     180.000 176.825   0.207
   23   20   31   18   3      0     180.000  53.846   0.139
   23   20   31   22   3      0     180.000 177.994   0.139
   23   20   31   26   3      0     180.000  63.460   0.207
   23   20   32   18   3      0     180.000 174.438   0.139
   23   20   32   22   3      0     180.000  61.414   0.139
   23   20   32   26   3      0     180.000  57.132   0.207
   33   19   34   18   2      0     180.000 148.581   0.548
   33   19   34   21   2      0     180.000  27.662   0.743
   33   19   37   18   2      0     180.000   3.461   0.813
   33   19   37   21   2      0     180.000 172.782   1.102
   34   33   35   19   3      0     180.000 128.712   0.022
   34   33   35   37   3      0     180.000  84.131   0.032
   34   33   38   19   3      0     180.000   6.237   0.032
   34   33   38   37   3      0     180.000 153.394   0.045
   34   33   39   19   3      0     180.000 107.756   0.032
   34   33   39   37   3      0     180.000  39.402   0.045
   35   34   36   33   3      0     180.000  73.761   0.065
   35   34   36   38   3      0     180.000 165.363   0.114
   35   34   36   39   3      0     180.000  49.379   0.114
   35   34   40   33   3      0     180.000 107.579   0.041
   35   34   40   38   3      0     180.000  13.297   0.072
   35   34   40   39   3      0     180.000 129.281   0.072
   40   35   41   34   2      0     180.000 178.327   0.608
   40   35   41   36   2      0     180.000   0.300   0.823
   40   35   44   34   2      0     180.000  18.787   0.901
   40   35   44   36   2      0     180.000 162.586   1.222
   41   40   42   35   3      0     180.000 114.795   0.022
   41   40   42   44   3      0     180.000  49.060   0.032
   41   40   45   35   3      0     180.000 120.168   0.032
   41   40   45   44   3      0     180.000  75.978   0.045
   41   40   46   35   3      0     180.000   3.661   0.032
   41   40   46   44   3      0     180.000 167.515   0.045
   42   41   43   40   3      0     180.000  44.950   0.066
   42   41   43   45   3      0     180.000 168.040   0.115
   42   41   43   46   3      0     180.000  73.114   0.115
   42   41   47   40   3      0     180.000 135.514   0.041
   42   41   47   45   3      0     180.000  12.423   0.072
   42   41   47   46   3      0     180.000 106.422   0.072
   47   42   48   41   2      0     180.000   4.362   0.341
   47   42   48   43   2      0     180.000 175.166   0.462
   47   42   49   41   2      0     180.000 172.432   0.486
   47   42   49   43   2      0     180.000   7.097   0.659
   48   47   50   42   2      0     180.000 117.882   1.385
   48   47   50   49   2      0     180.000  73.576   1.974
   48   47   51   42   2      0     180.000   1.141   1.385
   48   47   51   49   2      0     180.000 169.683   1.974
 out-of-plane atoms          phi0    phi      FC
    7   12    1    8          0.000  -4.212   0.338
    9   11   17    8          0.000  -0.088  23.242
   17   24    9   18          0.000 -18.632   0.033
   19   21   33   18          0.000   3.264  21.800
   33   37   19   34          0.000  30.144   0.254
   35   36   40   34          0.000  -1.236  23.827
   40   44   35   41          0.000  14.767   0.141
   42   43   47   41          0.000  -0.397  28.446
   47   49   42   48          0.000   9.511  -0.049
   48   50   51   47          0.000  55.338   0.551
          #tors  :   118
          #nmol  :   6
          #optfrag :   6

 GFN-FF setup done.

           ------------------------------------------------- 
          |                   G F N - F F                   |
          |          A general generic force-field          |
          |                  Version 1.0.3                  | 
           ------------------------------------------------- 
      * Solvation model:               ALPB
        Solvent                        water
        Parameter file                 internal GFN-FF/ALPB
        Dielectric constant                8.0200E+01
        Reference state                gsolv [1 M gas/solution]
        Free energy shift                  3.6494E-04 Eh       2.2900E-01 kcal/mol
        Temperature                        2.9815E+02 K
        Density                            1.0000E+00 kg/L
        Solvent mass                       1.8000E+01 g/mol
        Interaction kernel             P16
        Born radius scaling (c1)           1.5056E+00
        Born radii integrator          GBOBC
        Born offset                        0.0000E+00 a0       0.0000E+00 AA
        H-bond correction              true
        Ion screening                  false
        Surface tension                    1.0000E-05 Eh       1.5569E+01 dyn/cm
        Grid points                               230 per atom
          Number of HB bonds (bound hydrogen)     539
          Number of HB bonds (unbound hydrogen)   73
          Number of XB bonds                      0

 E+G (total)                   0 d,  0 h,  0 min,  0.001 sec
 distance/D3 list               ...        0 min,  0.000 sec (  0.815%)
 non bonded repulsion           ...        0 min,  0.000 sec (  2.198%)
 dCN                            ...        0 min,  0.000 sec (  5.594%)
 EEQ energy and q               ...        0 min,  0.000 sec (  5.874%)
 D3                             ...        0 min,  0.000 sec (  8.830%)
 EEQ gradient                   ...        0 min,  0.000 sec (  4.467%)
 bonds                          ...        0 min,  0.000 sec (  0.732%)
 bend and torsion               ...        0 min,  0.000 sec (  2.995%)
 bonded ATM                     ...        0 min,  0.000 sec (  1.344%)
 HB/XB (incl list setup)        ...        0 min,  0.000 sec (  8.012%)
 GBSA                           ...        0 min,  0.001 sec ( 61.935%)

         :::::::::::::::::::::::::::::::::::::::::::::::::::::
         ::                     SUMMARY                     ::
         :::::::::::::::::::::::::::::::::::::::::::::::::::::
         :: total energy              -8.548443243012 Eh    ::
         :: total w/o Gsolv           -8.496911391027 Eh    ::
         :: total w/o Gsasa/hb        -8.539803399911 Eh    ::
         :: gradient norm              0.182103782134 Eh/a0 ::
         ::.................................................::
         :: bond energy               -8.649187580405 Eh    ::
         :: angle energy               0.027416027133 Eh    ::
         :: torsion energy             0.017943246585 Eh    ::
         :: repulsion energy           0.527335793882 Eh    ::
         :: electrostat energy        -0.367065635095 Eh    ::
         :: dispersion energy         -0.038274954067 Eh    ::
         :: HB energy                 -0.000373037837 Eh    ::
         :: XB energy                  0.000000000000 Eh    ::
         :: bonded atm energy         -0.014705251224 Eh    ::
         :: external energy            0.000000000000 Eh    ::
         :: -> Gsolv                  -0.051531851985 Eh    ::
         ::    -> Gborn               -0.042892008885 Eh    ::
         ::    -> Gsasa                0.005624632673 Eh    ::
         ::    -> Ghb                 -0.014629415029 Eh    ::
         ::    -> Gshift               0.000364939255 Eh    ::
         :: add. restraining           0.000000000000 Eh    ::
         :: total charge              -0.000000000000 e     ::
         ::.................................................::
         :: atomisation energy         0.000000000000 Eh    ::
         :::::::::::::::::::::::::::::::::::::::::::::::::::::

      ----------------------------------------------------------- 
     |                   =====================                   |
     |                        A N C O P T                        |
     |                   =====================                   |
     |               Approximate Normal Coordinate               |
     |                Rational Function Optimizer                |
      ----------------------------------------------------------- 

          ...................................................
          :                      SETUP                      :
          :.................................................:
          :   optimization level         verytight          :
          :   max. optcycles                    10          :
          :   ANC micro-cycles                  10          :
          :   degrees of freedom               147          :
          :.................................................:
          :   RF solver                   davidson          :
          :   write xtbopt.log                true          :
          :   linear?                        false          :
          :   energy convergence         0.1000000E-06 Eh   :
          :   grad. convergence          0.2000000E-03 Eh/α :
          :   maxmium RF displ.          1.0000000          :
          :   Hlow (freq-cutoff)         0.1000000E-01      :
          :   Hmax (freq-cutoff)         5.0000000          :
          :   S6 in model hess.         20.0000000          :
          ...................................................

generating ANC from model Hessian ...
Using GFN-FF Lindh-Hessian
 Shifting diagonal of input Hessian by    0.0000000000000000     
 Lowest  eigenvalues of input Hessian
    0.000000    0.000000    0.000000    0.000000    0.000000    0.000000
    0.019834    0.029722    0.052050    0.057963    0.067085    0.085108
    0.097584    0.115842    0.137921    0.141455    0.151679    0.166758
 Highest eigenvalues
    3.326216    3.438718    3.498834    3.600394    3.889002    4.107164


........................................................................
.............................. CYCLE    1 ..............................
........................................................................
     iter. time                 ...        0 min,  0.001 sec
 * total energy  :    -8.5484432 Eh     change        0.0000000E+00 Eh
   gradient norm :     0.1821038 Eh/α   predicted     0.0000000E+00 (    NaN%)
   displ. norm   :     0.1091446 α      lambda       -0.1444977E-01
   maximum displ.:     0.0420836 α      in ANC's #49, #71, #138, ...

........................................................................
.............................. CYCLE    2 ..............................
........................................................................
     iter. time                 ...        0 min,  0.001 sec
 * total energy  :    -8.5580882 Eh     change       -0.9644989E-02 Eh
   gradient norm :     0.0672552 Eh/α   predicted    -0.7346948E-02 ( -23.83%)
   displ. norm   :     0.0587381 α      lambda       -0.3094987E-02
   maximum displ.:     0.0173730 α      in ANC's #49, #71, #138, ...

........................................................................
.............................. CYCLE    3 ..............................
........................................................................
     iter. time                 ...        0 min,  0.001 sec
 * total energy  :    -8.5597820 Eh     change       -0.1693793E-02 Eh
   gradient norm :     0.0187313 Eh/α   predicted    -0.1552883E-02 (  -8.32%)
   displ. norm   :     0.0195717 α      lambda       -0.2070233E-03
   maximum displ.:     0.0053684 α      in ANC's #16, #9, #5, ...

........................................................................
.............................. CYCLE    4 ..............................
........................................................................
     iter. time                 ...        0 min,  0.001 sec
 * total energy  :    -8.5599349 Eh     change       -0.1528464E-03 Eh
   gradient norm :     0.0095999 Eh/α   predicted    -0.1099228E-03 ( -28.08%)
   displ. norm   :     0.0144595 α      lambda       -0.7781571E-04
   maximum displ.:     0.0041981 α      in ANC's #9, #5, #16, ...

........................................................................
.............................. CYCLE    5 ..............................
........................................................................
     iter. time                 ...        0 min,  0.001 sec
 * total energy  :    -8.5599771 Eh     change       -0.4224040E-04 Eh
   gradient norm :     0.0022232 Eh/α   predicted    -0.3894911E-04 (  -7.79%)
   displ. norm   :     0.0026149 α      lambda       -0.3142515E-05
   maximum displ.:     0.0015299 α      in ANC's #2, #38, #14, ...

........................................................................
.............................. CYCLE    6 ..............................
........................................................................
     iter. time                 ...        0 min,  0.001 sec
 * total energy  :    -8.5599793 Eh     change       -0.2149786E-05 Eh
   gradient norm :     0.0008890 Eh/α   predicted    -0.1589259E-05 ( -26.07%)
   displ. norm   :     0.0036129 α      lambda       -0.6790847E-06
   maximum displ.:     0.0026108 α      in ANC's #2, #38, #3, ...

........................................................................
.............................. CYCLE    7 ..............................
........................................................................
     iter. time                 ...        0 min,  0.001 sec
 * total energy  :    -8.5599798 Eh     change       -0.5679526E-06 Eh
   gradient norm :     0.0004980 Eh/α   predicted    -0.4972717E-06 ( -12.44%)
   displ. norm   :     0.0010125 α      lambda       -0.1198725E-06
   maximum displ.:     0.0006465 α      in ANC's #2, #1, #11, ...

........................................................................
.............................. CYCLE    8 ..............................
........................................................................
     iter. time                 ...        0 min,  0.001 sec
 * total energy  :    -8.5599800 Eh     change       -0.1600174E-06 Eh
   gradient norm :     0.0001765 Eh/α   predicted    -0.7983719E-07 ( -50.11%)
   displ. norm   :     0.0021489 α      lambda       -0.4386615E-07
   maximum displ.:     0.0019381 α      in ANC's #2, #1, #3, ...

........................................................................
.............................. CYCLE    9 ..............................
........................................................................
     iter. time                 ...        0 min,  0.001 sec
 * total energy  :    -8.5599801 Eh     change       -0.8289126E-07 Eh
   gradient norm :     0.0001225 Eh/α   predicted    -0.3911490E-07 ( -52.81%)
   displ. norm   :     0.0033992 α      lambda       -0.4854857E-07
   maximum displ.:     0.0031045 α      in ANC's #2, #1, #3, ...

   *** GEOMETRY OPTIMIZATION CONVERGED AFTER 9 ITERATIONS ***

------------------------------------------------------------------------
 total energy gain   :        -0.0115368 Eh       -7.2395 kcal/mol
 total RMSD          :         0.0229130 a0        0.0121 Å
 total power (kW/mol):        -3.3655491 (step)-2506.8694 (real)
------------------------------------------------------------------------

 ANCopt (total)                0 d,  0 h,  0 min,  0.012 sec
 optimizer setup                ...        0 min,  0.000 sec (  1.062%)
 model hessian                  ...        0 min,  0.001 sec (  4.565%)
 ANC generation                 ...        0 min,  0.002 sec ( 12.816%)
 coordinate transformation      ...        0 min,  0.000 sec (  0.386%)
 single point calculation       ...        0 min,  0.009 sec ( 72.859%)
 optimization log               ...        0 min,  0.001 sec (  4.403%)
 hessian update                 ...        0 min,  0.000 sec (  0.559%)
 rational function              ...        0 min,  0.000 sec (  1.959%)

================
 final structure:
================
ATOM      1  C   ALA A   6     -12.355 -14.196   9.363  1.00  0.00           C  
ATOM      2  CB  ALA A   6     -14.292 -15.562   8.446  1.00  0.00           C  
ATOM      3  O   ALA A   6     -12.773 -13.112   9.013  1.00  0.00           O  
ATOM      4  HB1 ALA A   6     -13.704 -15.877   7.608  1.00  0.00           H  
ATOM      5  HB2 ALA A   6     -15.016 -16.322   8.707  1.00  0.00           H  
ATOM      6  HB3 ALA A   6     -14.806 -14.649   8.206  1.00  0.00           H  
ATOM      7  N   ALA A   7     -11.052 -14.543   9.457  1.00  0.00           N  
ATOM      8  CA  ALA A   7     -10.011 -13.586   9.123  1.00  0.00           C  
ATOM      9  C   ALA A   7     -10.131 -13.231   7.658  1.00  0.00           C  
ATOM     10  CB  ALA A   7      -8.621 -14.101   9.444  1.00  0.00           C  
ATOM     11  O   ALA A   7     -10.000 -14.108   6.829  1.00  0.00           O  
ATOM     12  H   ALA A   7     -10.747 -15.490   9.701  1.00  0.00           H  
ATOM     13  HA  ALA A   7     -10.224 -12.684   9.717  1.00  0.00           H  
ATOM     14  HB1 ALA A   7      -8.405 -14.986   8.848  1.00  0.00           H  
ATOM     15  HB2 ALA A   7      -7.860 -13.354   9.214  1.00  0.00           H  
ATOM     16  HB3 ALA A   7      -8.532 -14.372  10.496  1.00  0.00           H  
ATOM     17  N   VAL A   8     -10.383 -11.915   7.334  1.00  0.00           N  
ATOM     18  CA  VAL A   8     -10.289 -11.466   5.955  1.00  0.00           C  
ATOM     19  C   VAL A   8      -8.882 -11.750   5.460  1.00  0.00           C  
ATOM     20  CB  VAL A   8     -10.719  -9.997   5.758  1.00  0.00           C  
ATOM     21  O   VAL A   8      -7.939 -11.199   5.990  1.00  0.00           O  
ATOM     22  CG1 VAL A   8     -12.182  -9.815   6.157  1.00  0.00           C  
ATOM     23  CG2 VAL A   8      -9.814  -9.021   6.508  1.00  0.00           C  
ATOM     24  H   VAL A   8     -10.310 -11.185   8.042  1.00  0.00           H  
ATOM     25  HA  VAL A   8     -10.981 -12.105   5.387  1.00  0.00           H  
ATOM     26  HB  VAL A   8     -10.623  -9.779   4.680  1.00  0.00           H  
ATOM     27 HG11 VAL A   8     -12.327 -10.056   7.210  1.00  0.00           H  
ATOM     28 HG12 VAL A   8     -12.515  -8.788   6.003  1.00  0.00           H  
ATOM     29 HG13 VAL A   8     -12.838 -10.471   5.583  1.00  0.00           H  
ATOM     30 HG21 VAL A   8      -9.906  -9.148   7.586  1.00  0.00           H  
ATOM     31 HG22 VAL A   8      -8.766  -9.175   6.250  1.00  0.00           H  
ATOM     32 HG23 VAL A   8     -10.069  -7.985   6.281  1.00  0.00           H  
ATOM     33  N   GLY A   9      -8.689 -12.696   4.460  1.00  0.00           N  
ATOM     34  CA  GLY A   9      -7.451 -13.465   4.461  1.00  0.00           C  
ATOM     35  C   GLY A   9      -6.731 -13.471   3.169  1.00  0.00           C  
ATOM     36  O   GLY A   9      -7.134 -14.127   2.231  1.00  0.00           O  
ATOM     37  H   GLY A   9      -9.489 -13.223   4.106  1.00  0.00           H  
ATOM     38  HA2 GLY A   9      -6.810 -13.042   5.242  1.00  0.00           H  
ATOM     39  HA3 GLY A   9      -7.669 -14.495   4.765  1.00  0.00           H  
ATOM     40  N   GLY A  10      -5.579 -12.727   3.125  1.00  0.00           N  
ATOM     41  CA  GLY A  10      -4.801 -12.697   1.930  1.00  0.00           C  
ATOM     42  C   GLY A  10      -4.781 -11.317   1.320  1.00  0.00           C  
ATOM     43  O   GLY A  10      -5.822 -10.715   1.245  1.00  0.00           O  
ATOM     44  H   GLY A  10      -5.385 -11.993   3.809  1.00  0.00           H  
ATOM     45  HA2 GLY A  10      -3.803 -13.076   2.161  1.00  0.00           H  
ATOM     46  HA3 GLY A  10      -5.260 -13.393   1.218  1.00  0.00           H  
ATOM     47  N   GLY A  11      -3.574 -10.766   0.863  1.00  0.00           N  
ATOM     48  CA  GLY A  11      -2.307 -11.318   0.798  1.00  0.00           C  
ATOM     49  H   GLY A  11      -3.674  -9.867   0.358  1.00  0.00           H  
ATOM     50  HA2 GLY A  11      -1.592 -10.785   1.412  1.00  0.00           H  
ATOM     51  HA3 GLY A  11      -2.322 -12.352   1.161  1.00  0.00           H  
END

 Bond Distances (Angstroems)
 ---------------------------
C1-O3=1.2141         C1-N7=1.3517         C2-H4=1.0714         C2-H5=1.0810         C2-H6=1.0750         O3-C1=1.2141         
H4-C2=1.0714         H5-C2=1.0810         H6-C2=1.0750         N7-C1=1.3517         N7-C8=1.4530         N7-H12=1.0240        
C8-N7=1.4530         C8-C9=1.5126         C8-C10=1.5160        C8-H13=1.1009        C9-C8=1.5126         C9-O11=1.2138        
C9-N17=1.3784        C10-C8=1.5160        C10-H14=1.0893       C10-H15=1.0905       C10-H16=1.0899       O11-C9=1.2138        
H12-N7=1.0240        H13-C8=1.1009        H14-C10=1.0893       H15-C10=1.0905       H16-C10=1.0899       N17-C9=1.3784        
N17-C18=1.4534       N17-H24=1.0197       C18-N17=1.4534       C18-C19=1.5177       C18-C20=1.5430       C18-H25=1.1000       
C19-C18=1.5177       C19-O21=1.2146       C19-N33=1.3906       C20-C18=1.5430       C20-C22=1.5276       C20-C23=1.5278       
C20-H26=1.1042       O21-C19=1.2146       C22-C20=1.5276       C22-H27=1.0898       C22-H28=1.0904       C22-H29=1.0906       
C23-C20=1.5278       C23-H30=1.0885       C23-H31=1.0910       C23-H32=1.0906       H24-N17=1.0197       H25-C18=1.1000       
H26-C20=1.1042       H27-C22=1.0898       H28-C22=1.0904       H29-C22=1.0906       H30-C23=1.0885       H31-C23=1.0910       
H32-C23=1.0906       N33-C19=1.3906       N33-C34=1.4565       N33-H37=1.0216       C34-N33=1.4565       C34-C35=1.4800       
C34-H38=1.0951       C34-H39=1.0958       C35-C34=1.4800       C35-O36=1.2130       C35-N40=1.3717       O36-C35=1.2130       
H37-N33=1.0216       H38-C34=1.0951       H39-C34=1.0958       N40-C35=1.3717       N40-C41=1.4263       N40-H44=1.0219       
C41-N40=1.4263       C41-C42=1.5084       C41-H45=1.0929       C41-H46=1.0964       C42-C41=1.5084       C42-O43=1.2046       
C42-N47=1.4042       O43-C42=1.2046       H44-N40=1.0219       H45-C41=1.0929       H46-C41=1.0964       N47-C42=1.4042       
N47-C48=1.3834       N47-H49=1.0359       C48-N47=1.3834       C48-H50=1.0820       C48-H51=1.0963       H49-N47=1.0359       
H50-C48=1.0820       H51-C48=1.0963       
 C  H  Rav=1.0905 sigma=0.0078  Rmin=1.0714  Rmax=1.1042    21
 C  C  Rav=1.5166 sigma=0.0172  Rmin=1.4800  Rmax=1.5430     8
 N  H  Rav=1.0246 sigma=0.0058  Rmin=1.0197  Rmax=1.0359     5
 N  C  Rav=1.4069 sigma=0.0361  Rmin=1.3517  Rmax=1.4565    10
 O  C  Rav=1.2120 sigma=0.0037  Rmin=1.2046  Rmax=1.2146     5

 selected bond angles (degree)
 --------------------
N7-C1-O3=125.54                H5-C2-H4=110.47                H6-C2-H4=109.76                H6-C2-H5=109.30                
C8-N7-C1=120.38                H12-N7-C1=122.75               H12-N7-C8=116.75               C9-C8-N7=108.71                
C10-C8-N7=112.60               C10-C8-C9=110.97               H13-C8-N7=106.04               H13-C8-C9=108.36               
H13-C8-C10=109.96              O11-C9-C8=118.86               N17-C9-C8=117.81               N17-C9-O11=123.33              
H14-C10-C8=109.99              H15-C10-C8=111.28              H15-C10-H14=107.61             H16-C10-C8=111.35              
H16-C10-H14=108.04             H16-C10-H15=108.44             

 selected dihedral angles (degree)
 ---------------------------------
C8-N7-C1-O3=359.82            H12-N7-C1-O3=183.97           C9-C8-N7-C1=296.67            C9-C8-N7-H12=112.77           
C10-C8-N7-C1=173.29           C10-C8-N7-H12=349.38          H13-C8-N7-C1= 52.99           H13-C8-N7-H12=229.09          
O11-C9-C8-N7=298.55           O11-C9-C8-C10= 62.91          O11-C9-C8-H13=183.73          N17-C9-C8-N7=118.71           
N17-C9-C8-C10=243.07          N17-C9-C8-H13=  3.89          H14-C10-C8-N7= 62.62          H14-C10-C8-C9=300.51          
H14-C10-C8-H13=180.63         H15-C10-C8-N7=181.78          H15-C10-C8-C9= 59.67          H15-C10-C8-H13=299.79         
H16-C10-C8-N7=302.89          H16-C10-C8-C9=180.77          H16-C10-C8-H13= 60.90         

 CMA Distance (Angstroems)
 ---------------------------
R(CMA):  7.4360
           -------------------------------------------------
          |                Final Singlepoint                |
           -------------------------------------------------
         :::::::::::::::::::::::::::::::::::::::::::::::::::::
         ::                     SUMMARY                     ::
         :::::::::::::::::::::::::::::::::::::::::::::::::::::
         :: total energy              -8.559980072608 Eh    ::
         :: total w/o Gsolv           -8.508702468388 Eh    ::
         :: total w/o Gsasa/hb        -8.551476447317 Eh    ::
         :: gradient norm              0.000125045885 Eh/a0 ::
         ::.................................................::
         :: bond energy               -8.671536601095 Eh    ::
         :: angle energy               0.026121845869 Eh    ::
         :: torsion energy             0.019992498716 Eh    ::
         :: repulsion energy           0.532081834338 Eh    ::
         :: electrostat energy        -0.367732137708 Eh    ::
         :: dispersion energy         -0.038275127856 Eh    ::
         :: HB energy                 -0.000378791491 Eh    ::
         :: XB energy                  0.000000000000 Eh    ::
         :: bonded atm energy         -0.014490150145 Eh    ::
         :: external energy            0.000000000000 Eh    ::
         :: -> Gsolv                  -0.051277604220 Eh    ::
         ::    -> Gborn               -0.042773978929 Eh    ::
         ::    -> Gsasa                0.005655520566 Eh    ::
         ::    -> Ghb                 -0.014524085113 Eh    ::
         ::    -> Gshift               0.000364939255 Eh    ::
         :: add. restraining           0.005514160983 Eh    ::
         :: total charge               0.000000000000 e     ::
         ::.................................................::
         :: atomisation energy         0.000000000000 Eh    ::
         :::::::::::::::::::::::::::::::::::::::::::::::::::::

           -------------------------------------------------
          |                Property Printout                |
           -------------------------------------------------
           -------------------------------------------------
          |                Geometry Summary                 |
           -------------------------------------------------

      molecular mass/u    :      356.3980386
   center of mass at/Å    :       -8.6591453     -12.4374311       5.4458886
  moments of inertia/u·Å² :        0.1297569E+04   0.6259371E+04   0.6766944E+04
rotational constants/cm⁻¹ :        0.1299170E-01   0.2693183E-02   0.2491174E-02

 * 44 selected distances

     #   Z          #   Z                                           value/Å
     2   6  C       4   1  H                                      1.0713542
     2   6  C       5   1  H                                      1.0809892
     2   6  C       6   1  H                                      1.0749662
     1   6  C       7   7  N                                      1.3517380
     7   7  N       8   6  C                                      1.4529734
     8   6  C      10   6  C                                      1.5160314
     9   6  C      11   8  O                                      1.2138191
     7   7  N      12   1  H                                      1.0240126
     8   6  C      13   1  H                                      1.1008772
    10   6  C      14   1  H                                      1.0892869
    10   6  C      15   1  H                                      1.0905284
    10   6  C      16   1  H                                      1.0898954
     9   6  C      17   7  N                                      1.3783899
    17   7  N      18   6  C                                      1.4534281
    19   6  C      21   8  O                                      1.2145828
    20   6  C      22   6  C                                      1.5275593
    20   6  C      23   6  C                                      1.5277704 (max)
    17   7  N      24   1  H                                      1.0197273 (min)
    18   6  C      25   1  H                                      1.1000059
    20   6  C      26   1  H                                      1.1041631
    22   6  C      27   1  H                                      1.0898107
    22   6  C      28   1  H                                      1.0904389
    22   6  C      29   1  H                                      1.0905663
    23   6  C      30   1  H                                      1.0885236
    23   6  C      31   1  H                                      1.0910048
    23   6  C      32   1  H                                      1.0905992
    19   6  C      33   7  N                                      1.3905749
    33   7  N      34   6  C                                      1.4564919
    34   6  C      35   6  C                                      1.4800184
    35   6  C      36   8  O                                      1.2129608
    33   7  N      37   1  H                                      1.0215531
    34   6  C      38   1  H                                      1.0950575
    34   6  C      39   1  H                                      1.0958238
    35   6  C      40   7  N                                      1.3717416
    40   7  N      41   6  C                                      1.4262827
    42   6  C      43   8  O                                      1.2045913
    40   7  N      44   1  H                                      1.0218864
    41   6  C      45   1  H                                      1.0928513
    41   6  C      46   1  H                                      1.0964127
    42   6  C      47   7  N                                      1.4042042
    47   7  N      48   6  C                                      1.3833881
    47   7  N      49   1  H                                      1.0359231
    48   6  C      50   1  H                                      1.0819726
    48   6  C      51   1  H                                      1.0962937

 * 5 distinct bonds (by element types)

   Z      Z             #   av. dist./Å        max./Å        min./Å
   1 H    6 C          21     1.0905439     1.1041631     1.0713542
   6 C    6 C           4     1.5128449     1.5277704     1.4800184
   1 H    7 N           5     1.0246205     1.0359231     1.0197273
   6 C    7 N          10     1.4069213     1.4564919     1.3517380
   6 C    8 O           4     1.2114885     1.2145828     1.2045913


optimized geometry written to: xtbopt.pdb


           -------------------------------------------------
          | TOTAL ENERGY               -8.559980072608 Eh   |
          | GRADIENT NORM               0.000125045885 Eh/α |
           -------------------------------------------------
########################################################################
[WARNING] Runtime exception occurred
-1- gfnff_setup: Could not read topology file.
########################################################################

------------------------------------------------------------------------
 unit  open   action     filename
   10 false : read       xtb_settings.inp
   10 false : read       substructure_32.pdb
   10 false : read       xtb_settings.inp
   10 false : written    gfnff_topo
   10 false : written    gfnff_adjacency
   10 false : written    gfnff_charges
   10 false : deleted    .xtboptok
   10 false : replaced   xtbopt.log
   11 false : created    .xtboptok
   11 false : replaced   gfnff_charges
   10 false : replaced   xtbopt.pdb

------------------------------------------------------------------------
 * finished run on 2025/05/27 at 09:37:45.859     
------------------------------------------------------------------------
 total:
 * wall-time:     0 d,  0 h,  0 min,  0.019 sec
 *  cpu-time:     0 d,  0 h,  0 min,  0.019 sec
 * ratio c/w:     0.999 speedup
 SCF:
 * wall-time:     0 d,  0 h,  0 min,  0.001 sec
 *  cpu-time:     0 d,  0 h,  0 min,  0.001 sec
 * ratio c/w:     1.000 speedup
 ANC optimizer:
 * wall-time:     0 d,  0 h,  0 min,  0.013 sec
 *  cpu-time:     0 d,  0 h,  0 min,  0.013 sec
 * ratio c/w:     0.999 speedup

