      -----------------------------------------------------------      
     |                   =====================                   |     
     |                           x T B                           |     
     |                   =====================                   |     
     |                         S. Grimme                         |     
     |          Mulliken Center for Theoretical Chemistry        |     
     |                    University of Bonn                     |     
      -----------------------------------------------------------      

   * xtb version 6.6.1 (8d0f1dd) compiled by 'conda@1efc2f54142f' on 2023-08-01

   xtb is free software: you can redistribute it and/or modify it under
   the terms of the GNU Lesser General Public License as published by
   the Free Software Foundation, either version 3 of the License, or
   (at your option) any later version.
   
   xtb is distributed in the hope that it will be useful,
   but WITHOUT ANY WARRANTY; without even the implied warranty of
   MERCHANTABILITY or FITNESS FOR A PARTICULAR PURPOSE.  See the
   GNU Lesser General Public License for more details.
   
   Cite this work as:
   * C. Bannwarth, E. Caldeweyher, S. Ehlert, A. Hansen, P. Pracht,
     J. Seibert, S. Spicher, S. Grimme, WIREs Comput. Mol. Sci., 2020, 11,
     e01493. DOI: 10.1002/wcms.1493
   
   for GFN2-xTB:
   * C. Bannwarth, S. Ehlert and S. Grimme., J. Chem. Theory Comput., 2019,
     15, 1652-1671. DOI: 10.1021/acs.jctc.8b01176
   for GFN1-xTB:
   * S. Grimme, C. Bannwarth, P. Shushkov, J. Chem. Theory Comput., 2017,
     13, 1989-2009. DOI: 10.1021/acs.jctc.7b00118
   for GFN0-xTB:
   * P. Pracht, E. Caldeweyher, S. Ehlert, S. Grimme, ChemRxiv, 2019, preprint.
     DOI: 10.26434/chemrxiv.8326202.v1
   for GFN-FF:
   * S. Spicher and S. Grimme, Angew. Chem. Int. Ed., 2020, 59, 15665-15673.
     DOI: 10.1002/anie.202004239
   
   for ALPB and GBSA implicit solvation:
   * S. Ehlert, M. Stahn, S. Spicher, S. Grimme, J. Chem. Theory Comput.,
     2021, 17, 4250-4261. DOI: 10.1021/acs.jctc.1c00471
   
   for DFT-D4:
   * E. Caldeweyher, C. Bannwarth and S. Grimme, J. Chem. Phys., 2017,
     147, 034112. DOI: 10.1063/1.4993215
   * E. Caldeweyher, S. Ehlert, A. Hansen, H. Neugebauer, S. Spicher,
     C. Bannwarth and S. Grimme, J. Chem. Phys., 2019, 150, 154122.
     DOI: 10.1063/1.5090222
   * E. Caldeweyher, J.-M. Mewes, S. Ehlert and S. Grimme, Phys. Chem. Chem. Phys.
     2020, 22, 8499-8512. DOI: 10.1039/D0CP00502A
   
   for sTDA-xTB:
   * S. Grimme and C. Bannwarth, J. Chem. Phys., 2016, 145, 054103.
     DOI: 10.1063/1.4959605
   
   in the mass-spec context:
   * V. Asgeirsson, C. Bauer and S. Grimme, Chem. Sci., 2017, 8, 4879.
     DOI: 10.1039/c7sc00601b
   * J. Koopman and S. Grimme, ACS Omega 2019, 4, 12, 15120-15133.
     DOI: 10.1021/acsomega.9b02011
   
   for metadynamics refer to:
   * S. Grimme, J. Chem. Theory Comput., 2019, 155, 2847-2862
     DOI: 10.1021/acs.jctc.9b00143
   
   for SPH calculations refer to:
   * S. Spicher and S. Grimme, J. Chem. Theory Comput., 2021, 17, 1701-1714
     DOI: 10.1021/acs.jctc.0c01306
   
   with help from (in alphabetical order)
   P. Atkinson, C. Bannwarth, F. Bohle, G. Brandenburg, E. Caldeweyher
   M. Checinski, S. Dohm, S. Ehlert, S. Ehrlich, I. Gerasimov, C. Hölzer
   A. Katbashev, J. Koopman, C. Lavigne, S. Lehtola, F. März, M. Müller,
   F. Musil, H. Neugebauer, J. Pisarek, C. Plett, P. Pracht, F. Pultar,
   J. Seibert, P. Shushkov, S. Spicher, M. Stahn, M. Steiner, T. Strunk,
   J. Stückrath, T. Rose, and J. Unsleber
   
 * started run on 2025/05/27 at 09:37:36.734     

           -------------------------------------------------
          |                Calculation Setup                |
           -------------------------------------------------

          program call               : xtb substructure_13.pdb --gfnff --input xtb_settings.inp --opt vtight --alpb water --verbose
          coordinate file            : substructure_13.pdb
          xtbhome directory          : /home/dargen3
          path for xtb               : /home/dargen3
          xcontrol input file        : xtb_settings.inp
          omp threads                :                     1

$$$$$$$$$$$$$$$$$$$$$$$$$$$$$$$$$$$$$$$$$$$$$$$$$$$$$$$$$$$$$$$$$$$$$$$$
 CONSTRAINTS & SCANS: DEBUG SECTION
$$$$$$$$$$$$$$$$$$$$$$$$$$$$$$$$$$$$$$$$$$$$$$$$$$$$$$$$$$$$$$$$$$$$$$$$
   ID    Z sym.   atoms
    1    6  C     1, 2, 8-10, 18-20, 22, 23, 34, 35, 41, 42, 48
    2    8  O     3, 11, 21, 36, 43
    3    1  H     4-6, 12-16, 24-32, 37-39, 44-46, 49-51
    4    7  N     7, 17, 33, 40, 47
> constrain
-> atoms: 1, 2, 3, 4, 5, 6, 7, 8, 9, 10, 11, 12, 13, 14, 15, 16, 17, 18, 19, 20, 21, 22, 23, 24, 25, 26, 27, 28, 29, 30, 31, 32, 34, 40, 41, 42, 43, 44, 45, 46, 47, 48, 49, 50, 51
--> 1: 1
--> 2: 2
--> 3: 3
--> 4: 4
--> 5: 5
--> 6: 6
--> 7: 7
--> 8: 8
--> 9: 9
--> 10: 10
--> 11: 11
--> 12: 12
--> 13: 13
--> 14: 14
--> 15: 15
--> 16: 16
--> 17: 17
--> 18: 18
--> 19: 19
--> 20: 20
--> 21: 21
--> 22: 22
--> 23: 23
--> 24: 24
--> 25: 25
--> 26: 26
--> 27: 27
--> 28: 28
--> 29: 29
--> 30: 30
--> 31: 31
--> 32: 32
--> 33: 34
--> 34: 40
--> 35: 41
--> 36: 42
--> 37: 43
--> 38: 44
--> 39: 45
--> 40: 46
--> 41: 47
--> 42: 48
--> 43: 49
--> 44: 50
--> 45: 51
-> force constant=1.0
$$$$$$$$$$$$$$$$$$$$$$$$$$$$$$$$$$$$$$$$$$$$$$$$$$$$$$$$$$$$$$$$$$$$$$$$

molecular fragmentation (1/2 indicates fragments):
121222111111111111111111111111111111111111111111111
# atoms in fragment 1/2:    47     4
 fragment masses (1/2) :      341.36       15.03
CMA distance (Bohr)    :  14.051
constraining FC (au)   :  1.0000
           -------------------------------------------------
          |                   Constraints                   |
           -------------------------------------------------

 * 45 constrained atom positions
   positions refering to input geometry

     #   Z                                   position/Å      displ./Å
     1   6 C    -12.3760011   -14.2100013     9.3410009     0.0000000
     2   6 C    -14.2800013   -15.5580014     8.4720008     0.0000000
     3   8 O    -12.7670012   -13.1070012     9.0190008     0.0000000
     4   1 H    -13.7050013   -15.8770015     7.6020007     0.0000000
     5   1 H    -15.0170014   -16.3280015     8.7010008     0.0000000
     6   1 H    -14.8130014   -14.6480014     8.1990008     0.0000000
     7   7 N    -11.0460010   -14.5500013     9.4400009     0.0000000
     8   6 C    -10.0120009   -13.5880013     9.1230008     0.0000000
     9   6 C    -10.1020009   -13.2280012     7.6550007     0.0000000
    10   6 C     -8.6250008   -14.0970013     9.4700009     0.0000000
    11   8 O    -10.0010009   -14.1030013     6.8210006     0.0000000
    12   1 H    -10.7430010   -15.4930014     9.6880009     0.0000000
    13   1 H    -10.2390009   -12.6880012     9.7140009     0.0000000
    14   1 H     -8.3920008   -14.9780014     8.8720008     0.0000000
    15   1 H     -7.8620007   -13.3460012     9.2640009     0.0000000
    16   1 H     -8.5590008   -14.3760013    10.5220010     0.0000000
    17   7 N    -10.2950010   -11.9040011     7.3390007     0.0000000
    18   6 C    -10.2890010   -11.4620011     5.9580006     0.0000000
    19   6 C     -8.9210008   -11.7270011     5.3540005     0.0000000
    20   6 C    -10.7720010   -10.0070009     5.7780005     0.0000000
    21   8 O     -7.9840007   -10.9960010     5.6030005     0.0000000
    22   6 C    -12.2240011    -9.8730009     6.2350006     0.0000000
    23   6 C     -9.8730009    -9.0020008     6.4940006     0.0000000
    24   1 H    -10.2590010   -11.1770010     8.0530007     0.0000000
    25   1 H    -11.0060010   -12.1180011     5.4360005     0.0000000
    26   1 H    -10.7260010    -9.7870009     4.6970004     0.0000000
    27   1 H    -12.3190011   -10.1160009     7.2930007     0.0000000
    28   1 H    -12.5960012    -8.8570008     6.0940006     0.0000000
    29   1 H    -12.8800012   -10.5500010     5.6870005     0.0000000
    30   1 H     -9.9130009    -9.1360008     7.5730007     0.0000000
    31   1 H     -8.8320008    -9.1140008     6.1880006     0.0000000
    32   1 H    -10.1760009    -7.9750007     6.2840006     0.0000000
    34   6 C     -7.4510007   -13.4620012     4.4550004     0.0000000
    40   7 N     -5.5300005   -12.8210012     3.1490003     0.0000000
    41   6 C     -4.7940004   -12.6990012     1.9410002     0.0000000
    42   6 C     -4.7340004   -11.2640010     1.4730001     0.0000000
    43   8 O     -5.7520005   -10.6050010     1.5200001     0.0000000
    44   1 H     -5.1640005   -12.2910011     3.9430004     0.0000000
    45   1 H     -3.8150004   -13.1410012     2.0640002     0.0000000
    46   1 H     -5.3280005   -13.2860012     1.1680001     0.0000000
    47   7 N     -3.5700003   -10.6900010     0.9810001     0.0000000
    48   6 C     -2.2890002   -11.3470011     0.7820001     0.0000000
    49   1 H     -3.6250003    -9.7640009     0.5670001     0.0000000
    50   1 H     -1.5330001   -10.8580010     1.4040001     0.0000000
    51   1 H     -2.3320002   -12.3900011     1.1220001     0.0000000

     applying 990 atom pairwise harmonic potentials
       applied force constant per pair:     0.0227273
     effective force constant per atom:     1.0000000
         constraining energy/grad norm:     0.0000000     0.0000000

     total constraint energy/grad norm:     0.0000000     0.0000000

          charge from pdb residues: 0

          entering GFN-FF setup routine... 51

          ==================== Thresholds ====================
          CN  :   150.00000
          rep :   500.00000
          disp:  2500.00000
          HB1 :   250.00000
          HB2 :   450.00000

          Pauling EN used:
          Z : 1  EN :  2.20
          Z : 6  EN :  2.55
          Z : 7  EN :  3.04
          Z : 8  EN :  3.44
          electric field strengths (au): 0.000

           ------------------------------------------------- 
          |           Force Field Initialization            |
           ------------------------------------------------- 

          distances ...
          ----------------------------------------
          generating topology and atomic info file ...
          pair mat ...
          computing topology distances matrix with Floyd-Warshall algo ...
          making topology EEQ charges ...
          #fragments for EEQ constrain from pdb file: 6
          ----------------------------------------
          generating topology and atomic info file ...
          pair mat ...
          computing topology distances matrix with Floyd-Warshall algo ...
          making topology EEQ charges ...
          #fragments for EEQ constrain from pdb file: 6
          rings ...
          # BATM   444
          # H in HB   18
          doing iterative Hueckel for 6 subsystem(s) ...
          iterative Hueckel run to get P ...
Hueckel system :  1 charge :   0 ndim/Nel :    3    3   eps(HOMO/LUMO)   -0.953507   -0.953507
Hueckel system :  3 charge :   0 ndim/Nel :    3    4   eps(HOMO/LUMO)   -0.894229   -0.894229
Hueckel system :  4 charge :   0 ndim/Nel :    3    4   eps(HOMO/LUMO)   -0.920171   -0.920171
Hueckel system :  5 charge :   0 ndim/Nel :    3    4   eps(HOMO/LUMO)   -0.911777   -0.911777
Hueckel system :  6 charge :   0 ndim/Nel :    4    5   eps(HOMO/LUMO)    1.305464    1.305464
WARNING: probably wrong pi occupation for system 6. Second attempt with Nel=Nel-1!
 at,nb,topo%hyb,Npiel:          42  C             3           2           1
 at,nb,topo%hyb,Npiel:          43  O             1           2           1
 at,nb,topo%hyb,Npiel:          47  N             3           3           2
 at,nb,topo%hyb,Npiel:          48  C             3           2           1

          eigenvalues
 #    :           1          2          3          4
 occ. :        2.000      1.987      0.013      0.000
 eps  :        -4.348     -2.183      1.305      3.390
Hueckel system :  6 charge :   0 ndim/Nel :    4    4   eps(HOMO/LUMO)   -2.182611    1.305464

  atom   neighbors  erfCN metchar sp-hybrid imet pi  qest     coordinates
    1   C      2    1.94   0.00        -2    0    1  -0.011  -23.387251  -26.853008   17.651932
    2   C      3    2.78   0.00         3    0    0  -0.069  -26.985289  -29.400359   16.009760
    3   O      1    0.98   0.00         2    0    1  -0.247  -24.126133  -24.768640   17.043440
    4   H      1    0.97   0.00         0    0    0   0.109  -25.898697  -30.003182   14.365698
    5   H      1    0.97   0.00         0    0    0   0.109  -28.378017  -30.855448   16.442507
    6   H      1    0.97   0.00         0    0    0   0.109  -27.992513  -27.680708   15.493864
    7   N      3    2.79   0.00        -3    0    1  -0.114  -20.873915  -27.495515   17.839015
    8   C      4    3.49   0.00         3    0    0   0.028  -18.919938  -25.677599   17.239971
    9   C      3    2.80   0.00         2    0    1   0.164  -19.090013  -24.997297   14.465853
   10   C      4    3.49   0.00         3    0    0  -0.058  -16.298888  -26.639469   17.895706
   11   O      1    0.98   0.00         2    0    1  -0.386  -18.899151  -26.650808   12.889822
   12   H      1    0.98   0.00         0    0    0   0.119  -20.301328  -29.277527   18.307667
   13   H      1    0.97   0.01         0    0    0   0.062  -19.348906  -23.976845   18.356800
   14   H      1    0.97   0.00         0    0    0   0.062  -15.858582  -28.304318   16.765650
   15   H      1    0.97   0.00         0    0    0   0.062  -14.857027  -25.220285   17.506423
   16   H      1    0.97   0.00         0    0    0   0.062  -16.174166  -27.166703   19.883698
   17   N      3    2.79   0.00        -3    0    1  -0.192  -19.454730  -22.495300   13.868700
   18   C      4    3.49   0.00         3    0    0   0.030  -19.443392  -21.660041   11.258988
   19   C      3    2.80   0.00         2    0    1   0.140  -16.858247  -22.160818   10.117594
   20   C      4    3.48   0.00         3    0    0  -0.013  -20.356130  -18.910489   10.918838
   21   O      1    0.98   0.00         2    0    1  -0.392  -15.087573  -20.779428   10.588135
   22   C      4    3.49   0.00         3    0    0  -0.059  -23.100012  -18.657266   11.782442
   23   C      4    3.49   0.00         3    0    0  -0.059  -18.657266  -17.011315   12.271881
   24   H      1    0.98   0.00         0    0    0   0.129  -19.386700  -21.121469   15.217964
   25   H      1    0.97   0.01         0    0    0   0.056  -20.798326  -22.899701   10.272551
   26   H      1    0.97   0.01         0    0    0   0.051  -20.269202  -18.494750    8.876044
   27   H      1    0.97   0.00         0    0    0   0.052  -23.279536  -19.116469   13.781773
   28   H      1    0.97   0.00         0    0    0   0.052  -23.802990  -16.737304   11.515991
   29   H      1    0.97   0.00         0    0    0   0.052  -24.339672  -19.936611   10.746872
   30   H      1    0.97   0.00         0    0    0   0.052  -18.732855  -17.264538   14.310896
   31   H      1    0.97   0.00         0    0    0   0.052  -16.690061  -17.222964   11.693625
   32   H      1    0.97   0.00         0    0    0   0.052  -19.229853  -15.070566   11.875039
   33   N      3    2.79   0.00        -3    0    1  -0.136  -16.565339  -24.290540    8.598254
   34   C      4    3.50   0.00         3    0    0   0.003  -14.080349  -25.439493    8.418730
   35   C      3    2.80   0.00         2    0    1   0.173  -12.836910  -25.261859    5.935630
   36   O      1    0.98   0.00         2    0    1  -0.361  -13.844134  -26.083890    4.051573
   37   H      1    0.98   0.00         0    0    0   0.143  -17.995862  -25.588781    8.549121
   38   H      1    0.97   0.01         0    0    0   0.089  -12.891712  -24.526755    9.870040
   39   H      1    0.97   0.01         0    0    0   0.089  -14.203182  -27.438823    8.985648
   40   N      3    2.80   0.00        -3    0    1  -0.164  -10.450185  -24.228179    5.950748
   41   C      4    3.50   0.00         3    0    0   0.007   -9.059347  -23.997632    3.667958
   42   C      3    2.79   0.00         2    0    1   0.194   -8.945963  -21.285875    2.783567
   43   O      1    0.98   0.00         2    0    1  -0.360  -10.869705  -20.040546    2.872384
   44   H      1    0.98   0.00         0    0    0   0.147   -9.758546  -23.226624    7.451190
   45   H      1    0.97   0.00         0    0    0   0.088   -7.209305  -24.832891    3.900395
   46   H      1    0.97   0.01         0    0    0   0.088  -10.068461  -25.106901    2.207200
   47   N      3    2.79   0.00         3    0    1  -0.225   -6.746322  -20.201172    1.853821
   48   C      3    2.78   0.00         2    0    1  -0.008   -4.325583  -21.442722    1.477766
   49   H      1    0.98   0.00         0    0    0   0.123   -6.850257  -18.451286    1.071475
   50   H      1    0.97   0.00         0    0    0   0.055   -2.896950  -20.518646    2.653175
   51   H      1    0.97   0.00         0    0    0   0.055   -4.406841  -23.413707    2.120273

molecular fragment  # atoms  topo charge
       1             6             0.000
       2            10             0.000
       3            16            -0.000
       4             7             0.000
       5             7             0.000
       6             5            -0.000


          #atoms :   51
          #bonds :   49

 bond atoms        type  in ring    R      R0    piBO    fqq  kbond(tot)  alp
 O  C     3    1      2    0     1.214   0.997   0.792   1.002  -0.240   0.584
 H  C     4    2      1    0     1.091   0.938 -99.000   1.047  -0.169   0.482
 H  C     5    2      1    0     1.090   0.938 -99.000   1.047  -0.169   0.482
 H  C     6    2      1    0     1.089   0.938 -99.000   1.047  -0.169   0.482
 N  C     7    1      2    0     1.376   1.214   0.509   1.010  -0.227   0.524
 C  N     8    7      1    0     1.447   1.326 -99.000   1.045  -0.153   0.496
 C  C     9    8      1    0     1.514   1.332 -99.000   1.000  -0.160   0.475
 C  C    10    8      1    0     1.518   1.371 -99.000   1.040  -0.154   0.468
 O  C    11    9      2    0     1.213   1.031   0.857   1.047  -0.262   0.584
 H  N    12    7      1    0     1.021   0.890 -99.000   1.047  -0.176   0.551
 H  C    13    8      1    0     1.100   0.976 -99.000   1.007  -0.162   0.482
 H  C    14   10      1    0     1.090   0.976 -99.000   1.046  -0.168   0.482
 H  C    15   10      1    0     1.090   0.976 -99.000   1.046  -0.168   0.482
 H  C    16   10      1    0     1.090   0.976 -99.000   1.046  -0.168   0.482
 N  C    17    9      2    0     1.375   1.263   0.502   1.047  -0.234   0.524
 C  N    18   17      1    0     1.450   1.326 -99.000   1.047  -0.153   0.496
 C  C    19   18      1    0     1.519   1.332 -99.000   1.001  -0.160   0.475
 C  C    20   18      1    0     1.544   1.370 -99.000   1.028  -0.153   0.468
 O  C    21   19      2    0     1.214   1.030   0.860   1.047  -0.262   0.584
 C  C    22   20      1    0     1.528   1.370 -99.000   1.014  -0.151   0.468
 C  C    23   20      1    0     1.527   1.370 -99.000   1.014  -0.151   0.468
 H  N    24   17      1    0     1.020   0.890 -99.000   1.047  -0.176   0.551
 H  C    25   18      1    0     1.103   0.976 -99.000   1.007  -0.162   0.482
 H  C    26   20      1    0     1.104   0.976 -99.000   1.031  -0.166   0.482
 H  C    27   22      1    0     1.090   0.976 -99.000   1.045  -0.168   0.482
 H  C    28   22      1    0     1.091   0.976 -99.000   1.045  -0.168   0.482
 H  C    29   22      1    0     1.090   0.976 -99.000   1.045  -0.168   0.482
 H  C    30   23      1    0     1.088   0.976 -99.000   1.045  -0.168   0.482
 H  C    31   23      1    0     1.091   0.976 -99.000   1.045  -0.168   0.482
 H  C    32   23      1    0     1.091   0.976 -99.000   1.045  -0.168   0.482
 N  C    33   19      2    0     1.393   1.264   0.496   1.047  -0.233   0.524
 C  N    34   33      1    0     1.452   1.326 -99.000   1.029  -0.150   0.496
 C  C    35   34      1    0     1.473   1.333 -99.000   1.017  -0.163   0.475
 O  C    36   35      2    0     1.211   1.031   0.857   1.047  -0.262   0.584
 H  N    37   33      1    0     1.023   0.890 -99.000   1.047  -0.176   0.551
 H  C    38   34      1    0     1.104   0.977 -99.000   1.020  -0.164   0.482
 H  C    39   34      1    0     1.102   0.977 -99.000   1.020  -0.164   0.482
 N  C    40   35      2    0     1.376   1.264   0.502   1.047  -0.234   0.524
 C  N    41   40      1    0     1.420   1.326 -99.000   1.036  -0.151   0.496
 C  C    42   41      1    0     1.511   1.332 -99.000   1.009  -0.162   0.475
 O  C    43   42      2    0     1.214   1.018   0.930   1.047  -0.274   0.584
 H  N    44   40      1    0     1.022   0.890 -99.000   1.047  -0.176   0.551
 H  C    45   41      1    0     1.081   0.977 -99.000   1.016  -0.164   0.482
 H  C    46   41      1    0     1.108   0.976 -99.000   1.016  -0.164   0.482
 N  C    47   42      2    0     1.388   1.291   0.346   1.047  -0.203   0.524
 C  N    48   47      2    0     1.453   1.189   0.906   1.006  -0.302   0.524
 H  N    49   47      1    0     1.016   0.890 -99.000   1.047  -0.176   0.551
 H  C    50   48      1    0     1.094   0.949 -99.000   1.029  -0.179   0.490
 H  C    51   48      1    0     1.098   0.949 -99.000   1.029  -0.179   0.490
          #angl  :   82

 angle atoms        phi0    phi      FC  pi rings
    1    7    3   145.000 123.702   0.083 F   0
    2    5    4   108.600 108.507   0.179 F   0
    2    6    4   108.600 107.602   0.179 F   0
    2    6    5   108.600 108.173   0.179 F   0
    7    8    1   115.000 120.689   0.416 F   0
    7   12    1   115.000 122.166   0.341 F   0
    7   12    8   104.000 117.066   0.183 F   0
    8    9    7   109.500 109.140   0.307 F   0
    8   10    7   109.500 112.327   0.306 F   0
    8   10    9   109.500 110.838   0.305 F   0
    8   13    7   109.500 106.177   0.253 F   0
    8   13    9   109.500 108.300   0.252 F   0
    8   13   10   109.500 109.880   0.251 F   0
    9   11    8   120.000 119.349   0.178 F   0
    9   17    8   120.000 117.397   0.243 F   0
    9   17   11   120.000 123.254   0.176 F   0
   10   14    8   109.500 109.938   0.251 F   0
   10   15    8   109.500 111.430   0.251 F   0
   10   15   14   108.600 107.668   0.208 F   0
   10   16    8   109.500 111.207   0.251 F   0
   10   16   14   108.600 108.033   0.208 F   0
   10   16   15   108.600 108.433   0.208 F   0
   17   18    9   115.000 120.790   0.408 F   0
   17   24    9   115.000 121.383   0.333 F   0
   17   24   18   104.000 116.708   0.181 F   0
   18   19   17   109.500 109.227   0.306 F   0
   18   20   17   109.500 113.396   0.306 F   0
   18   20   19   109.500 113.575   0.305 F   0
   18   25   17   109.500 105.469   0.253 F   0
   18   25   19   109.500 107.068   0.252 F   0
   18   25   20   109.500 107.576   0.251 F   0
   19   21   18   120.000 120.564   0.179 F   0
   19   33   18   120.000 118.095   0.244 F   0
   19   33   21   120.000 121.302   0.178 F   0
   20   22   18   109.500 110.188   0.304 F   0
   20   23   18   109.500 112.430   0.304 F   0
   20   23   22   109.500 111.195   0.305 F   0
   20   26   18   109.500 106.795   0.251 F   0
   20   26   22   109.500 108.356   0.251 F   0
   20   26   23   109.500 107.666   0.251 F   0
   22   27   20   109.500 110.711   0.251 F   0
   22   28   20   109.500 111.529   0.251 F   0
   22   28   27   108.600 107.661   0.208 F   0
   22   29   20   109.500 111.525   0.251 F   0
   22   29   27   108.600 107.280   0.208 F   0
   22   29   28   108.600 107.943   0.208 F   0
   23   30   20   109.500 111.246   0.251 F   0
   23   31   20   109.500 111.273   0.251 F   0
   23   31   30   108.600 107.496   0.208 F   0
   23   32   20   109.500 111.456   0.251 F   0
   23   32   30   108.600 107.252   0.208 F   0
   23   32   31   108.600 107.918   0.208 F   0
   33   34   19   115.000 118.512   0.412 F   0
   33   37   19   115.000 118.413   0.336 F   0
   33   37   34   104.000 112.798   0.182 F   0
   34   35   33   109.500 115.873   0.307 F   0
   34   38   33   109.500 106.697   0.253 F   0
   34   38   35   109.500 109.770   0.251 F   0
   34   39   33   109.500 109.325   0.253 F   0
   34   39   35   109.500 109.310   0.251 F   0
   34   39   38   108.600 105.329   0.209 F   0
   35   36   34   120.000 120.991   0.178 F   0
   35   40   34   120.000 115.481   0.243 F   0
   35   40   36   120.000 123.454   0.177 F   0
   40   41   35   115.000 120.323   0.409 F   0
   40   44   35   115.000 122.617   0.334 F   0
   40   44   41   104.000 115.508   0.182 F   0
   41   42   40   109.500 111.458   0.307 F   0
   41   45   40   109.500 109.723   0.253 F   0
   41   45   42   109.500 112.808   0.252 F   0
   41   46   40   109.500 107.354   0.253 F   0
   41   46   42   109.500 107.838   0.252 F   0
   41   46   45   108.600 107.412   0.209 F   0
   42   43   41   120.000 118.069   0.177 F   0
   42   47   41   120.000 122.412   0.241 F   0
   42   47   43   120.000 119.514   0.174 F   0
   47   48   42   113.000 126.925   0.042 F   0
   47   49   42   113.000 118.428   0.212 F   0
   47   49   48   113.000 113.829   0.105 F   0
   48   50   47   120.000 109.213   0.204 F   0
   48   51   47   120.000 110.643   0.204 F   0
   48   51   50   120.000 105.995   0.167 F   0
 torsion atoms        nrot   rings    phi0    phi      FC
    7    1    8    3   2      0     180.000   1.585   0.634
    7    1   12    3   2      0     180.000 178.263   0.940
    8    7    9    1   3      0     180.000  64.226   0.023
    8    7    9   12   3      0     180.000 112.616   0.032
    8    7   10    1   3      0     180.000 172.434   0.023
    8    7   10   12   3      0     180.000  10.724   0.030
    8    7   13    1   3      0     180.000  52.309   0.033
    8    7   13   12   3      0     180.000 130.849   0.045
    9    8   11    7   3      0     180.000  58.515   0.067
    9    8   11   10   3      0     180.000  65.704   0.078
    9    8   11   13   3      0     180.000 173.691   0.116
    9    8   17    7   3      0     180.000 121.579   0.042
    9    8   17   10   3      0     180.000 114.201   0.049
    9    8   17   13   3      0     180.000   6.403   0.073
   10    8   14    7   3      0     180.000  63.067   0.119
   10    8   14    9   3      0     180.000  59.316   0.147
   10    8   14   13   3      0     180.000 178.979   0.209
   10    8   15    7   3      0     180.000 177.644   0.119
   10    8   15    9   3      0     180.000  59.973   0.147
   10    8   15   13   3      0     180.000  59.690   0.209
   10    8   16    7   3      0     180.000  56.535   0.119
   10    8   16    9   3      0     180.000 178.919   0.147
   10    8   16   13   3      0     180.000  61.419   0.209
   17    9   18    8   2      0     180.000 175.210   0.624
   17    9   18   11   2      0     180.000   4.691   0.846
   17    9   24    8   2      0     180.000   7.705   0.926
   17    9   24   11   2      0     180.000 172.196   1.255
   18   17   19    9   3      0     180.000  62.729   0.023
   18   17   19   24   3      0     180.000 105.337   0.033
   18   17   20    9   3      0     180.000 169.505   0.022
   18   17   20   24   3      0     180.000  22.428   0.031
   18   17   25    9   3      0     180.000  52.045   0.033
   18   17   25   24   3      0     180.000 139.888   0.046
   19   18   21   17   3      0     180.000  77.494   0.066
   19   18   21   20   3      0     180.000  50.171   0.078
   19   18   21   25   3      0     180.000 168.768   0.116
   19   18   33   17   3      0     180.000 100.266   0.042
   19   18   33   20   3      0     180.000 132.069   0.049
   19   18   33   25   3      0     180.000  13.473   0.073
   20   18   22   17   3      0     180.000  62.401   0.076
   20   18   22   17   1      0     180.000  62.401  -0.068
   20   18   22   19   3      0     180.000 172.128   0.093
   20   18   22   25   3      0     180.000  53.824   0.132
   20   18   23   17   3      0     180.000  62.245   0.076
   20   18   23   17   1      0     180.000  62.245  -0.068
   20   18   23   19   3      0     180.000  63.227   0.093
   20   18   23   25   3      0     180.000 178.470   0.132
   20   18   26   17   3      0     180.000 179.882   0.112
   20   18   26   19   3      0     180.000  54.646   0.138
   20   18   26   25   3      0     180.000  63.658   0.196
   22   20   27   18   3      0     180.000  61.554   0.139
   22   20   27   23   3      0     180.000  63.798   0.139
   22   20   27   26   3      0     180.000 178.064   0.207
   22   20   28   18   3      0     180.000 178.590   0.139
   22   20   28   23   3      0     180.000  56.058   0.139
   22   20   28   26   3      0     180.000  62.079   0.207
   22   20   29   18   3      0     180.000  57.820   0.139
   22   20   29   23   3      0     180.000 176.828   0.139
   22   20   29   26   3      0     180.000  58.691   0.207
   23   20   30   18   3      0     180.000  65.411   0.139
   23   20   30   22   3      0     180.000  58.679   0.139
   23   20   30   26   3      0     180.000 177.233   0.207
   23   20   31   18   3      0     180.000  54.425   0.139
   23   20   31   22   3      0     180.000 178.515   0.139
   23   20   31   26   3      0     180.000  62.932   0.207
   23   20   32   18   3      0     180.000 174.940   0.139
   23   20   32   22   3      0     180.000  60.970   0.139
   23   20   32   26   3      0     180.000  57.583   0.207
   33   19   34   18   2      0     180.000 152.913   0.548
   33   19   34   21   2      0     180.000  24.829   0.743
   33   19   37   18   2      0     180.000  10.235   0.813
   33   19   37   21   2      0     180.000 167.507   1.102
   34   33   35   19   3      0     180.000 112.675   0.022
   34   33   35   37   3      0     180.000 102.667   0.032
   34   33   38   19   3      0     180.000   9.870   0.032
   34   33   38   37   3      0     180.000 134.788   0.045
   34   33   39   19   3      0     180.000 123.302   0.032
   34   33   39   37   3      0     180.000  21.356   0.045
   35   34   36   33   3      0     180.000  57.098   0.065
   35   34   36   38   3      0     180.000 178.005   0.114
   35   34   36   39   3      0     180.000  66.933   0.114
   35   34   40   33   3      0     180.000 125.926   0.041
   35   34   40   38   3      0     180.000   5.019   0.072
   35   34   40   39   3      0     180.000 110.043   0.072
   40   35   41   34   2      0     180.000 179.104   0.608
   40   35   41   36   2      0     180.000   2.211   0.823
   40   35   44   34   2      0     180.000  15.744   0.901
   40   35   44   36   2      0     180.000 167.364   1.222
   41   40   42   35   3      0     180.000 106.449   0.022
   41   40   42   44   3      0     180.000  59.715   0.032
   41   40   45   35   3      0     180.000 127.862   0.032
   41   40   45   44   3      0     180.000  65.974   0.045
   41   40   46   35   3      0     180.000  11.434   0.032
   41   40   46   44   3      0     180.000 177.598   0.045
   42   41   43   40   3      0     180.000  43.747   0.066
   42   41   43   45   3      0     180.000 167.710   0.115
   42   41   43   46   3      0     180.000  73.844   0.115
   42   41   47   40   3      0     180.000 137.125   0.041
   42   41   47   45   3      0     180.000  13.162   0.072
   42   41   47   46   3      0     180.000 105.284   0.072
   47   42   48   41   2      0     180.000   2.892   0.341
   47   42   48   43   2      0     180.000 176.224   0.462
   47   42   49   41   2      0     180.000 171.848   0.486
   47   42   49   43   2      0     180.000   7.268   0.659
   48   47   50   42   2      0     180.000 118.913   1.385
   48   47   50   49   2      0     180.000  71.699   1.974
   48   47   51   42   2      0     180.000   2.610   1.385
   48   47   51   49   2      0     180.000 171.998   1.974
 out-of-plane atoms          phi0    phi      FC
    7   12    1    8          0.000  -2.857   0.338
    9   11   17    8          0.000  -0.088  23.242
   17   24    9   18          0.000 -10.712   0.033
   19   21   33   18          0.000   1.992  21.800
   33   37   19   34          0.000  32.192   0.254
   35   36   40   34          0.000  -2.805  23.827
   40   44   35   41          0.000  12.779   0.141
   42   43   47   41          0.000  -0.746  28.446
   47   49   42   48          0.000   8.809  -0.049
   48   50   51   47          0.000  55.496   0.551
          #tors  :   118
          #nmol  :   6
          #optfrag :   6

 GFN-FF setup done.

           ------------------------------------------------- 
          |                   G F N - F F                   |
          |          A general generic force-field          |
          |                  Version 1.0.3                  | 
           ------------------------------------------------- 
      * Solvation model:               ALPB
        Solvent                        water
        Parameter file                 internal GFN-FF/ALPB
        Dielectric constant                8.0200E+01
        Reference state                gsolv [1 M gas/solution]
        Free energy shift                  3.6494E-04 Eh       2.2900E-01 kcal/mol
        Temperature                        2.9815E+02 K
        Density                            1.0000E+00 kg/L
        Solvent mass                       1.8000E+01 g/mol
        Interaction kernel             P16
        Born radius scaling (c1)           1.5056E+00
        Born radii integrator          GBOBC
        Born offset                        0.0000E+00 a0       0.0000E+00 AA
        H-bond correction              true
        Ion screening                  false
        Surface tension                    1.0000E-05 Eh       1.5569E+01 dyn/cm
        Grid points                               230 per atom
          Number of HB bonds (bound hydrogen)     537
          Number of HB bonds (unbound hydrogen)   73
          Number of XB bonds                      0

 E+G (total)                   0 d,  0 h,  0 min,  0.001 sec
 distance/D3 list               ...        0 min,  0.000 sec (  0.783%)
 non bonded repulsion           ...        0 min,  0.000 sec (  2.122%)
 dCN                            ...        0 min,  0.000 sec (  5.514%)
 EEQ energy and q               ...        0 min,  0.000 sec (  5.467%)
 D3                             ...        0 min,  0.000 sec (  8.651%)
 EEQ gradient                   ...        0 min,  0.000 sec (  4.441%)
 bonds                          ...        0 min,  0.000 sec (  0.747%)
 bend and torsion               ...        0 min,  0.000 sec (  3.454%)
 bonded ATM                     ...        0 min,  0.000 sec (  1.352%)
 HB/XB (incl list setup)        ...        0 min,  0.000 sec (  8.312%)
 GBSA                           ...        0 min,  0.001 sec ( 61.922%)

         :::::::::::::::::::::::::::::::::::::::::::::::::::::
         ::                     SUMMARY                     ::
         :::::::::::::::::::::::::::::::::::::::::::::::::::::
         :: total energy              -8.547722128011 Eh    ::
         :: total w/o Gsolv           -8.494552426325 Eh    ::
         :: total w/o Gsasa/hb        -8.539306235975 Eh    ::
         :: gradient norm              0.180483458580 Eh/a0 ::
         ::.................................................::
         :: bond energy               -8.648893969885 Eh    ::
         :: angle energy               0.028628910646 Eh    ::
         :: torsion energy             0.016717117839 Eh    ::
         :: repulsion energy           0.527008449362 Eh    ::
         :: electrostat energy        -0.365054140957 Eh    ::
         :: dispersion energy         -0.038301813690 Eh    ::
         :: HB energy                 -0.000312043632 Eh    ::
         :: XB energy                  0.000000000000 Eh    ::
         :: bonded atm energy         -0.014344936006 Eh    ::
         :: external energy            0.000000000000 Eh    ::
         :: -> Gsolv                  -0.053169701687 Eh    ::
         ::    -> Gborn               -0.044753809650 Eh    ::
         ::    -> Gsasa                0.005723174635 Eh    ::
         ::    -> Ghb                 -0.014504005927 Eh    ::
         ::    -> Gshift               0.000364939255 Eh    ::
         :: add. restraining           0.000000000000 Eh    ::
         :: total charge               0.000000000000 e     ::
         ::.................................................::
         :: atomisation energy         0.000000000000 Eh    ::
         :::::::::::::::::::::::::::::::::::::::::::::::::::::

      ----------------------------------------------------------- 
     |                   =====================                   |
     |                        A N C O P T                        |
     |                   =====================                   |
     |               Approximate Normal Coordinate               |
     |                Rational Function Optimizer                |
      ----------------------------------------------------------- 

          ...................................................
          :                      SETUP                      :
          :.................................................:
          :   optimization level         verytight          :
          :   max. optcycles                    10          :
          :   ANC micro-cycles                  10          :
          :   degrees of freedom               147          :
          :.................................................:
          :   RF solver                   davidson          :
          :   write xtbopt.log                true          :
          :   linear?                        false          :
          :   energy convergence         0.1000000E-06 Eh   :
          :   grad. convergence          0.2000000E-03 Eh/α :
          :   maxmium RF displ.          1.0000000          :
          :   Hlow (freq-cutoff)         0.1000000E-01      :
          :   Hmax (freq-cutoff)         5.0000000          :
          :   S6 in model hess.         20.0000000          :
          ...................................................

generating ANC from model Hessian ...
Using GFN-FF Lindh-Hessian
 Shifting diagonal of input Hessian by    0.0000000000000000     
 Lowest  eigenvalues of input Hessian
    0.000000    0.000000    0.000000    0.000000    0.000000    0.000000
    0.019526    0.029669    0.050898    0.056146    0.068437    0.084986
    0.094325    0.114335    0.139391    0.141015    0.148624    0.161727
 Highest eigenvalues
    3.335803    3.460073    3.580394    3.644113    3.871200    4.133330


........................................................................
.............................. CYCLE    1 ..............................
........................................................................
     iter. time                 ...        0 min,  0.001 sec
 * total energy  :    -8.5477221 Eh     change        0.0000000E+00 Eh
   gradient norm :     0.1804835 Eh/α   predicted     0.0000000E+00 (    NaN%)
   displ. norm   :     0.1112745 α      lambda       -0.1446298E-01
   maximum displ.:     0.0408412 α      in ANC's #49, #71, #138, ...

........................................................................
.............................. CYCLE    2 ..............................
........................................................................
     iter. time                 ...        0 min,  0.001 sec
 * total energy  :    -8.5573331 Eh     change       -0.9610999E-02 Eh
   gradient norm :     0.0658871 Eh/α   predicted    -0.7325939E-02 ( -23.78%)
   displ. norm   :     0.0625723 α      lambda       -0.3066321E-02
   maximum displ.:     0.0177555 α      in ANC's #49, #138, #71, ...

........................................................................
.............................. CYCLE    3 ..............................
........................................................................
     iter. time                 ...        0 min,  0.001 sec
 * total energy  :    -8.5590128 Eh     change       -0.1679712E-02 Eh
   gradient norm :     0.0181726 Eh/α   predicted    -0.1539202E-02 (  -8.37%)
   displ. norm   :     0.0238678 α      lambda       -0.2003196E-03
   maximum displ.:     0.0108086 α      in ANC's #1, #4, #15, ...

........................................................................
.............................. CYCLE    4 ..............................
........................................................................
     iter. time                 ...        0 min,  0.001 sec
 * total energy  :    -8.5591626 Eh     change       -0.1497958E-03 Eh
   gradient norm :     0.0094001 Eh/α   predicted    -0.1068965E-03 ( -28.64%)
   displ. norm   :     0.0233925 α      lambda       -0.8559153E-04
   maximum displ.:     0.0133966 α      in ANC's #1, #4, #2, ...

........................................................................
.............................. CYCLE    5 ..............................
........................................................................
     iter. time                 ...        0 min,  0.001 sec
 * total energy  :    -8.5592108 Eh     change       -0.4815068E-04 Eh
   gradient norm :     0.0024766 Eh/α   predicted    -0.4283756E-04 ( -11.03%)
   displ. norm   :     0.0097766 α      lambda       -0.7179194E-05
   maximum displ.:     0.0061907 α      in ANC's #1, #4, #2, ...

........................................................................
.............................. CYCLE    6 ..............................
........................................................................
     iter. time                 ...        0 min,  0.001 sec
 * total energy  :    -8.5592170 Eh     change       -0.6175587E-05 Eh
   gradient norm :     0.0015779 Eh/α   predicted    -0.3946734E-05 ( -36.09%)
   displ. norm   :     0.0307792 α      lambda       -0.1115836E-04
   maximum displ.:     0.0188208 α      in ANC's #1, #4, #3, ...

........................................................................
.............................. CYCLE    7 ..............................
........................................................................
     iter. time                 ...        0 min,  0.001 sec
 * total energy  :    -8.5592257 Eh     change       -0.8742817E-05 Eh
   gradient norm :     0.0028301 Eh/α   predicted    -0.5592680E-05 ( -36.03%)
   displ. norm   :     0.0088531 α      lambda       -0.4270060E-05
   maximum displ.:     0.0047223 α      in ANC's #1, #4, #3, ...

........................................................................
.............................. CYCLE    8 ..............................
........................................................................
     iter. time                 ...        0 min,  0.001 sec
 * total energy  :    -8.5592295 Eh     change       -0.3834581E-05 Eh
   gradient norm :     0.0021602 Eh/α   predicted    -0.2202052E-05 ( -42.57%)
   displ. norm   :     0.0273227 α      lambda       -0.1074036E-04
   maximum displ.:     0.0141691 α      in ANC's #1, #4, #3, ...

........................................................................
.............................. CYCLE    9 ..............................
........................................................................
     iter. time                 ...        0 min,  0.001 sec
 * total energy  :    -8.5592353 Eh     change       -0.5734562E-05 Eh
   gradient norm :     0.0006487 Eh/α   predicted    -0.5401402E-05 (  -5.81%)
   displ. norm   :     0.0034393 α      lambda       -0.4302937E-06
   maximum displ.:     0.0014448 α      in ANC's #4, #2, #3, ...

........................................................................
.............................. CYCLE   10 ..............................
........................................................................
     iter. time                 ...        0 min,  0.001 sec
 * total energy  :    -8.5592357 Eh     change       -0.4548059E-06 Eh
   gradient norm :     0.0003480 Eh/α   predicted    -0.2199387E-06 ( -51.64%)
   displ. norm   :     0.0023393 α      lambda       -0.2607621E-06
   maximum displ.:     0.0013647 α      in ANC's #2, #9, #12, ...

   *** FAILED TO CONVERGE GEOMETRY OPTIMIZATION IN 10 ITERATIONS ***


 ANCopt (total)                0 d,  0 h,  0 min,  0.013 sec
 optimizer setup                ...        0 min,  0.000 sec (  0.984%)
 model hessian                  ...        0 min,  0.000 sec (  3.535%)
 ANC generation                 ...        0 min,  0.001 sec (  9.876%)
 coordinate transformation      ...        0 min,  0.000 sec (  0.410%)
 single point calculation       ...        0 min,  0.010 sec ( 76.655%)
 optimization log               ...        0 min,  0.001 sec (  4.433%)
 hessian update                 ...        0 min,  0.000 sec (  0.582%)
 rational function              ...        0 min,  0.000 sec (  2.211%)

================
 final structure:
================
ATOM      1  C   ALA A   6     -12.356 -14.196   9.363  1.00  0.00           C  
ATOM      2  CB  ALA A   6     -14.292 -15.565   8.448  1.00  0.00           C  
ATOM      3  O   ALA A   6     -12.775 -13.111   9.015  1.00  0.00           O  
ATOM      4  HB1 ALA A   6     -13.702 -15.878   7.611  1.00  0.00           H  
ATOM      5  HB2 ALA A   6     -15.012 -16.326   8.711  1.00  0.00           H  
ATOM      6  HB3 ALA A   6     -14.808 -14.653   8.209  1.00  0.00           H  
ATOM      7  N   ALA A   7     -11.052 -14.549   9.444  1.00  0.00           N  
ATOM      8  CA  ALA A   7     -10.010 -13.587   9.125  1.00  0.00           C  
ATOM      9  C   ALA A   7     -10.102 -13.228   7.658  1.00  0.00           C  
ATOM     10  CB  ALA A   7      -8.625 -14.097   9.472  1.00  0.00           C  
ATOM     11  O   ALA A   7     -10.000 -14.104   6.824  1.00  0.00           O  
ATOM     12  H   ALA A   7     -10.745 -15.495   9.688  1.00  0.00           H  
ATOM     13  HA  ALA A   7     -10.238 -12.687   9.716  1.00  0.00           H  
ATOM     14  HB1 ALA A   7      -8.391 -14.977   8.875  1.00  0.00           H  
ATOM     15  HB2 ALA A   7      -7.862 -13.345   9.266  1.00  0.00           H  
ATOM     16  HB3 ALA A   7      -8.558 -14.375  10.524  1.00  0.00           H  
ATOM     17  N   VAL A   8     -10.295 -11.905   7.340  1.00  0.00           N  
ATOM     18  CA  VAL A   8     -10.289 -11.466   5.955  1.00  0.00           C  
ATOM     19  C   VAL A   8      -8.922 -11.726   5.353  1.00  0.00           C  
ATOM     20  CB  VAL A   8     -10.773 -10.009   5.777  1.00  0.00           C  
ATOM     21  O   VAL A   8      -7.983 -10.998   5.606  1.00  0.00           O  
ATOM     22  CG1 VAL A   8     -12.225  -9.875   6.234  1.00  0.00           C  
ATOM     23  CG2 VAL A   8      -9.874  -9.003   6.493  1.00  0.00           C  
ATOM     24  H   VAL A   8     -10.259 -11.177   8.054  1.00  0.00           H  
ATOM     25  HA  VAL A   8     -11.006 -12.121   5.437  1.00  0.00           H  
ATOM     26  HB  VAL A   8     -10.726  -9.790   4.696  1.00  0.00           H  
ATOM     27 HG11 VAL A   8     -12.320 -10.117   7.292  1.00  0.00           H  
ATOM     28 HG12 VAL A   8     -12.597  -8.860   6.092  1.00  0.00           H  
ATOM     29 HG13 VAL A   8     -12.880 -10.553   5.687  1.00  0.00           H  
ATOM     30 HG21 VAL A   8      -9.914  -9.136   7.572  1.00  0.00           H  
ATOM     31 HG22 VAL A   8      -8.833  -9.115   6.187  1.00  0.00           H  
ATOM     32 HG23 VAL A   8     -10.177  -7.977   6.282  1.00  0.00           H  
ATOM     33  N   GLY A   9      -8.760 -12.846   4.548  1.00  0.00           N  
ATOM     34  CA  GLY A   9      -7.447 -13.467   4.467  1.00  0.00           C  
ATOM     35  C   GLY A   9      -6.792 -13.362   3.144  1.00  0.00           C  
ATOM     36  O   GLY A   9      -7.332 -13.777   2.140  1.00  0.00           O  
ATOM     37  H   GLY A   9      -9.531 -13.514   4.470  1.00  0.00           H  
ATOM     38  HA2 GLY A   9      -6.821 -12.989   5.228  1.00  0.00           H  
ATOM     39  HA3 GLY A   9      -7.524 -14.523   4.751  1.00  0.00           H  
ATOM     40  N   GLY A  10      -5.529 -12.825   3.150  1.00  0.00           N  
ATOM     41  CA  GLY A  10      -4.803 -12.699   1.930  1.00  0.00           C  
ATOM     42  C   GLY A  10      -4.744 -11.264   1.467  1.00  0.00           C  
ATOM     43  O   GLY A  10      -5.751 -10.606   1.521  1.00  0.00           O  
ATOM     44  H   GLY A  10      -5.165 -12.294   3.944  1.00  0.00           H  
ATOM     45  HA2 GLY A  10      -3.815 -13.144   2.066  1.00  0.00           H  
ATOM     46  HA3 GLY A  10      -5.327 -13.292   1.171  1.00  0.00           H  
ATOM     47  N   GLY A  11      -3.538 -10.726   0.985  1.00  0.00           N  
ATOM     48  CA  GLY A  11      -2.301 -11.320   0.807  1.00  0.00           C  
ATOM     49  H   GLY A  11      -3.618  -9.778   0.576  1.00  0.00           H  
ATOM     50  HA2 GLY A  11      -1.528 -10.858   1.402  1.00  0.00           H  
ATOM     51  HA3 GLY A  11      -2.341 -12.375   1.101  1.00  0.00           H  
END

 Bond Distances (Angstroems)
 ---------------------------
C1-O3=1.2146         C1-N7=1.3534         C2-H4=1.0713         C2-H5=1.0807         C2-H6=1.0748         O3-C1=1.2146         
H4-C2=1.0713         H5-C2=1.0807         H6-C2=1.0748         N7-C1=1.3534         N7-C8=1.4538         N7-H12=1.0245        
C8-N7=1.4538         C8-C9=1.5124         C8-C10=1.5163        C8-H13=1.1008        C9-C8=1.5124         C9-O11=1.2136        
C9-N17=1.3754        C10-C8=1.5163        C10-H14=1.0896       C10-H15=1.0906       C10-H16=1.0902       O11-C9=1.2136        
H12-N7=1.0245        H13-C8=1.1008        H14-C10=1.0896       H15-C10=1.0906       H16-C10=1.0902       N17-C9=1.3754        
N17-C18=1.4521       N17-H24=1.0200       C18-N17=1.4521       C18-C19=1.5170       C18-C20=1.5449       C18-H25=1.1000       
C19-C18=1.5170       C19-O21=1.2150       C19-N33=1.3885       C20-C18=1.5449       C20-C22=1.5281       C20-C23=1.5270       
C20-H26=1.1041       O21-C19=1.2150       C22-C20=1.5281       C22-H27=1.0897       C22-H28=1.0908       C22-H29=1.0904       
C23-C20=1.5270       C23-H30=1.0883       C23-H31=1.0906       C23-H32=1.0909       H24-N17=1.0200       H25-C18=1.1000       
H26-C20=1.1041       H27-C22=1.0897       H28-C22=1.0908       H29-C22=1.0904       H30-C23=1.0883       H31-C23=1.0906       
H32-C23=1.0909       N33-C19=1.3885       N33-C34=1.4549       N33-H37=1.0222       C34-N33=1.4549       C34-C35=1.4799       
C34-H38=1.0949       C34-H39=1.0959       C35-C34=1.4799       C35-O36=1.2127       C35-N40=1.3727       O36-C35=1.2127       
H37-N33=1.0222       H38-C34=1.0949       H39-C34=1.0959       N40-C35=1.3727       N40-C41=1.4261       N40-H44=1.0217       
C41-N40=1.4261       C41-C42=1.5090       C41-H45=1.0922       C41-H46=1.0970       C42-C41=1.5090       C42-O43=1.2046       
C42-N47=1.4053       O43-C42=1.2046       H44-N40=1.0217       H45-C41=1.0922       H46-C41=1.0970       N47-C42=1.4053       
N47-C48=1.3843       N47-H49=1.0351       C48-N47=1.3843       C48-H50=1.0795       C48-H51=1.0960       H49-N47=1.0351       
H50-C48=1.0795       H51-C48=1.0960       
 C  H  Rav=1.0904 sigma=0.0080  Rmin=1.0713  Rmax=1.1041    21
 C  C  Rav=1.5168 sigma=0.0176  Rmin=1.4799  Rmax=1.5449     8
 N  H  Rav=1.0247 sigma=0.0054  Rmin=1.0200  Rmax=1.0351     5
 N  C  Rav=1.4067 sigma=0.0358  Rmin=1.3534  Rmax=1.4549    10
 O  C  Rav=1.2121 sigma=0.0038  Rmin=1.2046  Rmax=1.2150     5

 selected bond angles (degree)
 --------------------
N7-C1-O3=125.62                H5-C2-H4=110.52                H6-C2-H4=109.76                H6-C2-H5=109.39                
C8-N7-C1=120.34                H12-N7-C1=122.92               H12-N7-C8=116.68               C9-C8-N7=109.02                
C10-C8-N7=112.45               C10-C8-C9=110.95               H13-C8-N7=105.95               H13-C8-C9=108.32               
H13-C8-C10=109.95              O11-C9-C8=119.37               N17-C9-C8=117.46               N17-C9-O11=123.17              
H14-C10-C8=109.99              H15-C10-C8=111.35              H15-C10-H14=107.66             H16-C10-C8=111.28              
H16-C10-H14=108.03             H16-C10-H15=108.40             

 selected dihedral angles (degree)
 ---------------------------------
C8-N7-C1-O3=  1.31            H12-N7-C1-O3=183.89           C9-C8-N7-C1=294.81            C9-C8-N7-H12=112.39           
C10-C8-N7-C1=171.33           C10-C8-N7-H12=348.91          H13-C8-N7-C1= 51.19           H13-C8-N7-H12=228.77          
O11-C9-C8-N7=301.19           O11-C9-C8-C10= 65.56          O11-C9-C8-H13=186.33          N17-C9-C8-N7=121.37           
N17-C9-C8-C10=245.74          N17-C9-C8-H13=  6.51          H14-C10-C8-N7= 63.19          H14-C10-C8-C9=300.79          
H14-C10-C8-H13=180.98         H15-C10-C8-N7=182.44          H15-C10-C8-C9= 60.04          H15-C10-C8-H13=300.24         
H16-C10-C8-N7=303.51          H16-C10-C8-C9=181.10          H16-C10-C8-H13= 61.30         

 CMA Distance (Angstroems)
 ---------------------------
R(CMA):  7.4375
           -------------------------------------------------
          |                Final Singlepoint                |
           -------------------------------------------------
         :::::::::::::::::::::::::::::::::::::::::::::::::::::
         ::                     SUMMARY                     ::
         :::::::::::::::::::::::::::::::::::::::::::::::::::::
         :: total energy              -8.559235969640 Eh    ::
         :: total w/o Gsolv           -8.506214441440 Eh    ::
         :: total w/o Gsasa/hb        -8.550946795323 Eh    ::
         :: gradient norm              0.000194318583 Eh/a0 ::
         ::.................................................::
         :: bond energy               -8.671579236541 Eh    ::
         :: angle energy               0.027140022957 Eh    ::
         :: torsion energy             0.018537494964 Eh    ::
         :: repulsion energy           0.532085045982 Eh    ::
         :: electrostat energy        -0.365200773285 Eh    ::
         :: dispersion energy         -0.038307114735 Eh    ::
         :: HB energy                 -0.000299786266 Eh    ::
         :: XB energy                  0.000000000000 Eh    ::
         :: bonded atm energy         -0.014201543097 Eh    ::
         :: external energy            0.000000000000 Eh    ::
         :: -> Gsolv                  -0.053021528200 Eh    ::
         ::    -> Gborn               -0.044732353884 Eh    ::
         ::    -> Gsasa                0.005750621557 Eh    ::
         ::    -> Ghb                 -0.014404735129 Eh    ::
         ::    -> Gshift               0.000364939255 Eh    ::
         :: add. restraining           0.005611448579 Eh    ::
         :: total charge              -0.000000000000 e     ::
         ::.................................................::
         :: atomisation energy         0.000000000000 Eh    ::
         :::::::::::::::::::::::::::::::::::::::::::::::::::::

           -------------------------------------------------
          |                Property Printout                |
           -------------------------------------------------
           -------------------------------------------------
          |                Geometry Summary                 |
           -------------------------------------------------

      molecular mass/u    :      356.3980386
   center of mass at/Å    :       -8.6693853     -12.4132915       5.4530958
  moments of inertia/u·Å² :        0.1282242E+04   0.6220512E+04   0.6724540E+04
rotational constants/cm⁻¹ :        0.1314700E-01   0.2710007E-02   0.2506882E-02

 * 44 selected distances

     #   Z          #   Z                                           value/Å
     2   6  C       4   1  H                                      1.0712997
     2   6  C       5   1  H                                      1.0807269
     2   6  C       6   1  H                                      1.0747848
     1   6  C       7   7  N                                      1.3533794
     7   7  N       8   6  C                                      1.4538340
     8   6  C      10   6  C                                      1.5163257
     9   6  C      11   8  O                                      1.2135998
     7   7  N      12   1  H                                      1.0244962
     8   6  C      13   1  H                                      1.1008465
    10   6  C      14   1  H                                      1.0895690
    10   6  C      15   1  H                                      1.0905855
    10   6  C      16   1  H                                      1.0901742
     9   6  C      17   7  N                                      1.3754153
    17   7  N      18   6  C                                      1.4520709
    19   6  C      21   8  O                                      1.2149585
    20   6  C      22   6  C                                      1.5280763 (max)
    20   6  C      23   6  C                                      1.5269631
    17   7  N      24   1  H                                      1.0199791 (min)
    18   6  C      25   1  H                                      1.1000365
    20   6  C      26   1  H                                      1.1041115
    22   6  C      27   1  H                                      1.0897428
    22   6  C      28   1  H                                      1.0907781
    22   6  C      29   1  H                                      1.0903895
    23   6  C      30   1  H                                      1.0882933
    23   6  C      31   1  H                                      1.0905538
    23   6  C      32   1  H                                      1.0909124
    19   6  C      33   7  N                                      1.3884603
    33   7  N      34   6  C                                      1.4549087
    34   6  C      35   6  C                                      1.4798717
    35   6  C      36   8  O                                      1.2126620
    33   7  N      37   1  H                                      1.0222050
    34   6  C      38   1  H                                      1.0949125
    34   6  C      39   1  H                                      1.0958503
    35   6  C      40   7  N                                      1.3727039
    40   7  N      41   6  C                                      1.4261270
    42   6  C      43   8  O                                      1.2045664
    40   7  N      44   1  H                                      1.0217464
    41   6  C      45   1  H                                      1.0922180
    41   6  C      46   1  H                                      1.0969802
    42   6  C      47   7  N                                      1.4053365
    47   7  N      48   6  C                                      1.3843206
    47   7  N      49   1  H                                      1.0351357
    48   6  C      50   1  H                                      1.0795205
    48   6  C      51   1  H                                      1.0959978

 * 5 distinct bonds (by element types)

   Z      Z             #   av. dist./Å        max./Å        min./Å
   1 H    6 C          21     1.0903945     1.1041115     1.0712997
   6 C    6 C           4     1.5128092     1.5280763     1.4798717
   1 H    7 N           5     1.0247125     1.0351357     1.0199791
   6 C    7 N          10     1.4066557     1.4549087     1.3533794
   6 C    8 O           4     1.2114467     1.2149585     1.2045664


optimized geometry written to: xtbopt.pdb


           -------------------------------------------------
          | TOTAL ENERGY               -8.559235969640 Eh   |
          | GRADIENT NORM               0.000194318583 Eh/α |
           -------------------------------------------------
########################################################################
[WARNING] Runtime exception occurred
-1- gfnff_setup: Could not read topology file.
########################################################################

------------------------------------------------------------------------
 unit  open   action     filename
   10 false : read       xtb_settings.inp
   10 false : read       substructure_13.pdb
   10 false : read       xtb_settings.inp
   10 false : written    gfnff_topo
   10 false : written    gfnff_adjacency
   10 false : written    gfnff_charges
   10 false : deleted    .xtboptok
   10 false : replaced   xtbopt.log
   11 false : created    .xtboptok
   11 false : replaced   gfnff_charges
   10 false : replaced   xtbopt.pdb

------------------------------------------------------------------------
 * finished run on 2025/05/27 at 09:37:36.753     
------------------------------------------------------------------------
 total:
 * wall-time:     0 d,  0 h,  0 min,  0.019 sec
 *  cpu-time:     0 d,  0 h,  0 min,  0.019 sec
 * ratio c/w:     0.998 speedup
 SCF:
 * wall-time:     0 d,  0 h,  0 min,  0.001 sec
 *  cpu-time:     0 d,  0 h,  0 min,  0.001 sec
 * ratio c/w:     0.999 speedup
 ANC optimizer:
 * wall-time:     0 d,  0 h,  0 min,  0.014 sec
 *  cpu-time:     0 d,  0 h,  0 min,  0.014 sec
 * ratio c/w:     0.998 speedup

