      -----------------------------------------------------------      
     |                   =====================                   |     
     |                           x T B                           |     
     |                   =====================                   |     
     |                         S. Grimme                         |     
     |          Mulliken Center for Theoretical Chemistry        |     
     |                    University of Bonn                     |     
      -----------------------------------------------------------      

   * xtb version 6.6.1 (8d0f1dd) compiled by 'conda@1efc2f54142f' on 2023-08-01

   xtb is free software: you can redistribute it and/or modify it under
   the terms of the GNU Lesser General Public License as published by
   the Free Software Foundation, either version 3 of the License, or
   (at your option) any later version.
   
   xtb is distributed in the hope that it will be useful,
   but WITHOUT ANY WARRANTY; without even the implied warranty of
   MERCHANTABILITY or FITNESS FOR A PARTICULAR PURPOSE.  See the
   GNU Lesser General Public License for more details.
   
   Cite this work as:
   * C. Bannwarth, E. Caldeweyher, S. Ehlert, A. Hansen, P. Pracht,
     J. Seibert, S. Spicher, S. Grimme, WIREs Comput. Mol. Sci., 2020, 11,
     e01493. DOI: 10.1002/wcms.1493
   
   for GFN2-xTB:
   * C. Bannwarth, S. Ehlert and S. Grimme., J. Chem. Theory Comput., 2019,
     15, 1652-1671. DOI: 10.1021/acs.jctc.8b01176
   for GFN1-xTB:
   * S. Grimme, C. Bannwarth, P. Shushkov, J. Chem. Theory Comput., 2017,
     13, 1989-2009. DOI: 10.1021/acs.jctc.7b00118
   for GFN0-xTB:
   * P. Pracht, E. Caldeweyher, S. Ehlert, S. Grimme, ChemRxiv, 2019, preprint.
     DOI: 10.26434/chemrxiv.8326202.v1
   for GFN-FF:
   * S. Spicher and S. Grimme, Angew. Chem. Int. Ed., 2020, 59, 15665-15673.
     DOI: 10.1002/anie.202004239
   
   for ALPB and GBSA implicit solvation:
   * S. Ehlert, M. Stahn, S. Spicher, S. Grimme, J. Chem. Theory Comput.,
     2021, 17, 4250-4261. DOI: 10.1021/acs.jctc.1c00471
   
   for DFT-D4:
   * E. Caldeweyher, C. Bannwarth and S. Grimme, J. Chem. Phys., 2017,
     147, 034112. DOI: 10.1063/1.4993215
   * E. Caldeweyher, S. Ehlert, A. Hansen, H. Neugebauer, S. Spicher,
     C. Bannwarth and S. Grimme, J. Chem. Phys., 2019, 150, 154122.
     DOI: 10.1063/1.5090222
   * E. Caldeweyher, J.-M. Mewes, S. Ehlert and S. Grimme, Phys. Chem. Chem. Phys.
     2020, 22, 8499-8512. DOI: 10.1039/D0CP00502A
   
   for sTDA-xTB:
   * S. Grimme and C. Bannwarth, J. Chem. Phys., 2016, 145, 054103.
     DOI: 10.1063/1.4959605
   
   in the mass-spec context:
   * V. Asgeirsson, C. Bauer and S. Grimme, Chem. Sci., 2017, 8, 4879.
     DOI: 10.1039/c7sc00601b
   * J. Koopman and S. Grimme, ACS Omega 2019, 4, 12, 15120-15133.
     DOI: 10.1021/acsomega.9b02011
   
   for metadynamics refer to:
   * S. Grimme, J. Chem. Theory Comput., 2019, 155, 2847-2862
     DOI: 10.1021/acs.jctc.9b00143
   
   for SPH calculations refer to:
   * S. Spicher and S. Grimme, J. Chem. Theory Comput., 2021, 17, 1701-1714
     DOI: 10.1021/acs.jctc.0c01306
   
   with help from (in alphabetical order)
   P. Atkinson, C. Bannwarth, F. Bohle, G. Brandenburg, E. Caldeweyher
   M. Checinski, S. Dohm, S. Ehlert, S. Ehrlich, I. Gerasimov, C. Hölzer
   A. Katbashev, J. Koopman, C. Lavigne, S. Lehtola, F. März, M. Müller,
   F. Musil, H. Neugebauer, J. Pisarek, C. Plett, P. Pracht, F. Pultar,
   J. Seibert, P. Shushkov, S. Spicher, M. Stahn, M. Steiner, T. Strunk,
   J. Stückrath, T. Rose, and J. Unsleber
   
 * started run on 2025/05/27 at 09:37:40.202     

           -------------------------------------------------
          |                Calculation Setup                |
           -------------------------------------------------

          program call               : xtb substructure_20.pdb --gfnff --input xtb_settings.inp --opt vtight --alpb water --verbose
          coordinate file            : substructure_20.pdb
          xtbhome directory          : /home/dargen3
          path for xtb               : /home/dargen3
          xcontrol input file        : xtb_settings.inp
          omp threads                :                     1

$$$$$$$$$$$$$$$$$$$$$$$$$$$$$$$$$$$$$$$$$$$$$$$$$$$$$$$$$$$$$$$$$$$$$$$$
 CONSTRAINTS & SCANS: DEBUG SECTION
$$$$$$$$$$$$$$$$$$$$$$$$$$$$$$$$$$$$$$$$$$$$$$$$$$$$$$$$$$$$$$$$$$$$$$$$
   ID    Z sym.   atoms
    1    6  C     1, 2, 8-10, 18-20, 22, 23, 34, 35, 41, 42, 48
    2    8  O     3, 11, 21, 36, 43
    3    1  H     4-6, 12-16, 24-32, 37-39, 44-46, 49-51
    4    7  N     7, 17, 33, 40, 47
> constrain
-> atoms: 1, 2, 3, 4, 5, 6, 7, 8, 9, 10, 11, 12, 13, 14, 15, 16, 17, 18, 19, 20, 21, 22, 23, 24, 25, 26, 27, 28, 29, 30, 31, 32, 34, 40, 41, 42, 43, 44, 45, 46, 47, 48, 49, 50, 51
--> 1: 1
--> 2: 2
--> 3: 3
--> 4: 4
--> 5: 5
--> 6: 6
--> 7: 7
--> 8: 8
--> 9: 9
--> 10: 10
--> 11: 11
--> 12: 12
--> 13: 13
--> 14: 14
--> 15: 15
--> 16: 16
--> 17: 17
--> 18: 18
--> 19: 19
--> 20: 20
--> 21: 21
--> 22: 22
--> 23: 23
--> 24: 24
--> 25: 25
--> 26: 26
--> 27: 27
--> 28: 28
--> 29: 29
--> 30: 30
--> 31: 31
--> 32: 32
--> 33: 34
--> 34: 40
--> 35: 41
--> 36: 42
--> 37: 43
--> 38: 44
--> 39: 45
--> 40: 46
--> 41: 47
--> 42: 48
--> 43: 49
--> 44: 50
--> 45: 51
-> force constant=1.0
$$$$$$$$$$$$$$$$$$$$$$$$$$$$$$$$$$$$$$$$$$$$$$$$$$$$$$$$$$$$$$$$$$$$$$$$

molecular fragmentation (1/2 indicates fragments):
121222111111111111111111111111111111111111111111111
# atoms in fragment 1/2:    47     4
 fragment masses (1/2) :      341.36       15.03
CMA distance (Bohr)    :  14.050
constraining FC (au)   :  1.0000
           -------------------------------------------------
          |                   Constraints                   |
           -------------------------------------------------

 * 45 constrained atom positions
   positions refering to input geometry

     #   Z                                   position/Å      displ./Å
     1   6 C    -12.3740011   -14.2110013     9.3420009     0.0000000
     2   6 C    -14.2790013   -15.5570014     8.4720008     0.0000000
     3   8 O    -12.7640012   -13.1090012     9.0190008     0.0000000
     4   1 H    -13.7050013   -15.8780015     7.6020007     0.0000000
     5   1 H    -15.0190014   -16.3250015     8.7000008     0.0000000
     6   1 H    -14.8110014   -14.6460014     8.1980008     0.0000000
     7   7 N    -11.0460010   -14.5440013     9.4530009     0.0000000
     8   6 C    -10.0120009   -13.5880013     9.1230008     0.0000000
     9   6 C    -10.1230009   -13.2290012     7.6580007     0.0000000
    10   6 C     -8.6210008   -14.0990013     9.4510009     0.0000000
    11   8 O    -10.0160009   -14.1090013     6.8300006     0.0000000
    12   1 H    -10.7440010   -15.4870014     9.7020009     0.0000000
    13   1 H    -10.2290009   -12.6850012     9.7170009     0.0000000
    14   1 H     -8.4010008   -14.9840014     8.8550008     0.0000000
    15   1 H     -7.8610007   -13.3510012     9.2260009     0.0000000
    16   1 H     -8.5370008   -14.3700013    10.5040010     0.0000000
    17   7 N    -10.3400010   -11.9080011     7.3370007     0.0000000
    18   6 C    -10.2890010   -11.4620011     5.9580006     0.0000000
    19   6 C     -8.9010008   -11.7510011     5.4130005     0.0000000
    20   6 C    -10.7340010   -10.0000009     5.7640005     0.0000000
    21   8 O     -7.9490007   -11.1330010     5.8460005     0.0000000
    22   6 C    -12.1910011    -9.8280009     6.1940006     0.0000000
    23   6 C     -9.8230009    -9.0150008     6.4940006     0.0000000
    24   1 H    -10.2690010   -11.1790010     8.0450007     0.0000000
    25   1 H    -10.9970010   -12.1090011     5.4110005     0.0000000
    26   1 H    -10.6630010    -9.7830009     4.6830004     0.0000000
    27   1 H    -12.3100011   -10.0670009     7.2500007     0.0000000
    28   1 H    -12.5350012    -8.8040008     6.0460006     0.0000000
    29   1 H    -12.8530012   -10.4900010     5.6350005     0.0000000
    30   1 H     -9.8880009    -9.1430008     7.5730007     0.0000000
    31   1 H     -8.7790008    -9.1580008     6.2110006     0.0000000
    32   1 H    -10.0930009    -7.9820007     6.2740006     0.0000000
    34   6 C     -7.4510007   -13.4620012     4.4550004     0.0000000
    40   7 N     -5.5560005   -12.7650012     3.1380003     0.0000000
    41   6 C     -4.7940004   -12.6990012     1.9410002     0.0000000
    42   6 C     -4.7560004   -11.2940010     1.3890001     0.0000000
    43   8 O     -5.7950005   -10.6670010     1.3540001     0.0000000
    44   1 H     -5.2960005   -12.0980011     3.8680004     0.0000000
    45   1 H     -3.8060004   -13.1050012     2.1210002     0.0000000
    46   1 H     -5.2900005   -13.3470012     1.1960001     0.0000000
    47   7 N     -3.5900003   -10.7090010     0.9250001     0.0000000
    48   6 C     -2.2890002   -11.3470011     0.7820001     0.0000000
    49   1 H     -3.6540003    -9.8050009     0.4640000     0.0000000
    50   1 H     -1.5620001   -10.8240010     1.4100001     0.0000000
    51   1 H     -2.3230002   -12.3800011     1.1490001     0.0000000

     applying 990 atom pairwise harmonic potentials
       applied force constant per pair:     0.0227273
     effective force constant per atom:     1.0000000
         constraining energy/grad norm:     0.0000000     0.0000000

     total constraint energy/grad norm:     0.0000000     0.0000000

          charge from pdb residues: 0

          entering GFN-FF setup routine... 51

          ==================== Thresholds ====================
          CN  :   150.00000
          rep :   500.00000
          disp:  2500.00000
          HB1 :   250.00000
          HB2 :   450.00000

          Pauling EN used:
          Z : 1  EN :  2.20
          Z : 6  EN :  2.55
          Z : 7  EN :  3.04
          Z : 8  EN :  3.44
          electric field strengths (au): 0.000

           ------------------------------------------------- 
          |           Force Field Initialization            |
           ------------------------------------------------- 

          distances ...
          ----------------------------------------
          generating topology and atomic info file ...
          pair mat ...
          computing topology distances matrix with Floyd-Warshall algo ...
          making topology EEQ charges ...
          #fragments for EEQ constrain from pdb file: 6
          ----------------------------------------
          generating topology and atomic info file ...
          pair mat ...
          computing topology distances matrix with Floyd-Warshall algo ...
          making topology EEQ charges ...
          #fragments for EEQ constrain from pdb file: 6
          rings ...
          # BATM   444
          # H in HB   18
          doing iterative Hueckel for 6 subsystem(s) ...
          iterative Hueckel run to get P ...
Hueckel system :  1 charge :   0 ndim/Nel :    3    3   eps(HOMO/LUMO)   -0.953507   -0.953507
Hueckel system :  3 charge :   0 ndim/Nel :    3    4   eps(HOMO/LUMO)   -0.894229   -0.894229
Hueckel system :  4 charge :   0 ndim/Nel :    3    4   eps(HOMO/LUMO)   -0.920171   -0.920171
Hueckel system :  5 charge :   0 ndim/Nel :    3    4   eps(HOMO/LUMO)   -0.911777   -0.911777
Hueckel system :  6 charge :   0 ndim/Nel :    4    5   eps(HOMO/LUMO)    1.305464    1.305464
WARNING: probably wrong pi occupation for system 6. Second attempt with Nel=Nel-1!
 at,nb,topo%hyb,Npiel:          42  C             3           2           1
 at,nb,topo%hyb,Npiel:          43  O             1           2           1
 at,nb,topo%hyb,Npiel:          47  N             3           3           2
 at,nb,topo%hyb,Npiel:          48  C             3           2           1

          eigenvalues
 #    :           1          2          3          4
 occ. :        2.000      1.987      0.013      0.000
 eps  :        -4.348     -2.183      1.305      3.390
Hueckel system :  6 charge :   0 ndim/Nel :    4    4   eps(HOMO/LUMO)   -2.182611    1.305464

  atom   neighbors  erfCN metchar sp-hybrid imet pi  qest     coordinates
    1   C      2    1.94   0.00        -2    0    1  -0.011  -23.383471  -26.854898   17.653821
    2   C      3    2.78   0.00         3    0    0  -0.069  -26.983399  -29.398469   16.009760
    3   O      1    0.98   0.00         2    0    1  -0.247  -24.120464  -24.772420   17.043440
    4   H      1    0.97   0.00         0    0    0   0.109  -25.898697  -30.005071   14.365698
    5   H      1    0.97   0.00         0    0    0   0.109  -28.381797  -30.849779   16.440617
    6   H      1    0.97   0.00         0    0    0   0.109  -27.988734  -27.676929   15.491975
    7   N      3    2.79   0.00        -3    0    1  -0.114  -20.873915  -27.484177   17.863581
    8   C      4    3.49   0.00         3    0    0   0.028  -18.919938  -25.677599   17.239971
    9   C      3    2.80   0.00         2    0    1   0.164  -19.129698  -24.999187   14.471523
   10   C      4    3.49   0.00         3    0    0  -0.058  -16.291329  -26.643249   17.859802
   11   O      1    0.98   0.00         2    0    1  -0.386  -18.927497  -26.662146   12.906829
   12   H      1    0.98   0.00         0    0    0   0.119  -20.303217  -29.266188   18.334123
   13   H      1    0.97   0.01         0    0    0   0.062  -19.330009  -23.971176   18.362469
   14   H      1    0.97   0.00         0    0    0   0.062  -15.875589  -28.315656   16.733525
   15   H      1    0.97   0.00         0    0    0   0.062  -14.855137  -25.229733   17.434613
   16   H      1    0.97   0.00         0    0    0   0.062  -16.132592  -27.155364   19.849683
   17   N      3    2.79   0.00        -3    0    1  -0.192  -19.539768  -22.502859   13.864921
   18   C      4    3.49   0.00         3    0    0   0.030  -19.443392  -21.660041   11.258988
   19   C      3    2.80   0.00         2    0    1   0.140  -16.820452  -22.206172   10.229088
   20   C      4    3.48   0.00         3    0    0  -0.013  -20.284320  -18.897261   10.892381
   21   O      1    0.98   0.00         2    0    1  -0.392  -15.021433  -21.038321   11.047339
   22   C      4    3.49   0.00         3    0    0  -0.059  -23.037651  -18.572228   11.704964
   23   C      4    3.49   0.00         3    0    0  -0.059  -18.562780  -17.035881   12.271881
   24   H      1    0.98   0.00         0    0    0   0.129  -19.405598  -21.125248   15.202847
   25   H      1    0.97   0.01         0    0    0   0.056  -20.781318  -22.882694   10.225308
   26   H      1    0.97   0.01         0    0    0   0.051  -20.150150  -18.487191    8.849587
   27   H      1    0.97   0.00         0    0    0   0.052  -23.262529  -19.023873   13.700514
   28   H      1    0.97   0.00         0    0    0   0.052  -23.687717  -16.637149   11.425284
   29   H      1    0.97   0.00         0    0    0   0.052  -24.288650  -19.823227   10.648607
   30   H      1    0.97   0.00         0    0    0   0.052  -18.685612  -17.277766   14.310896
   31   H      1    0.97   0.00         0    0    0   0.052  -16.589906  -17.306112   11.737089
   32   H      1    0.97   0.00         0    0    0   0.052  -19.073006  -15.083794   11.856142
   33   N      3    2.79   0.00        -3    0    1  -0.136  -16.493530  -24.128023    8.475422
   34   C      4    3.50   0.00         3    0    0   0.003  -14.080349  -25.439493    8.418730
   35   C      3    2.80   0.00         2    0    1   0.173  -12.766990  -25.375242    5.962086
   36   O      1    0.98   0.00         2    0    1  -0.361  -13.655161  -26.412702    4.121493
   37   H      1    0.98   0.00         0    0    0   0.143  -17.993972  -25.250520    8.008659
   38   H      1    0.97   0.01         0    0    0   0.089  -12.887932  -24.583447    9.885157
   39   H      1    0.97   0.01         0    0    0   0.089  -14.365698  -27.416147    9.006435
   40   N      3    2.80   0.00        -3    0    1  -0.164  -10.499318  -24.122354    5.929961
   41   C      4    3.50   0.00         3    0    0   0.007   -9.059347  -23.997632    3.667958
   42   C      3    2.79   0.00         2    0    1   0.194   -8.987537  -21.342567    2.624830
   43   O      1    0.98   0.00         2    0    1  -0.360  -10.950963  -20.157709    2.558689
   44   H      1    0.98   0.00         0    0    0   0.147  -10.007990  -22.861907    7.309461
   45   H      1    0.97   0.00         0    0    0   0.088   -7.192298  -24.764861    4.008109
   46   H      1    0.97   0.01         0    0    0   0.088   -9.996651  -25.222175    2.260112
   47   N      3    2.79   0.00         3    0    1  -0.225   -6.784117  -20.237077    1.747997
   48   C      3    2.78   0.00         2    0    1  -0.008   -4.325583  -21.442722    1.477766
   49   H      1    0.98   0.00         0    0    0   0.123   -6.905059  -18.528765    0.876833
   50   H      1    0.97   0.00         0    0    0   0.055   -2.951752  -20.454396    2.664514
   51   H      1    0.97   0.00         0    0    0   0.055   -4.389834  -23.394809    2.171295

molecular fragment  # atoms  topo charge
       1             6             0.000
       2            10             0.000
       3            16            -0.000
       4             7             0.000
       5             7             0.000
       6             5            -0.000


          #atoms :   51
          #bonds :   49

 bond atoms        type  in ring    R      R0    piBO    fqq  kbond(tot)  alp
 O  C     3    1      2    0     1.213   0.997   0.792   1.002  -0.240   0.584
 H  C     4    2      1    0     1.091   0.938 -99.000   1.047  -0.169   0.482
 H  C     5    2      1    0     1.091   0.938 -99.000   1.047  -0.169   0.482
 H  C     6    2      1    0     1.090   0.938 -99.000   1.047  -0.169   0.482
 N  C     7    1      2    0     1.374   1.214   0.509   1.010  -0.227   0.524
 C  N     8    7      1    0     1.446   1.326 -99.000   1.045  -0.153   0.496
 C  C     9    8      1    0     1.512   1.332 -99.000   1.000  -0.160   0.475
 C  C    10    8      1    0     1.518   1.371 -99.000   1.040  -0.154   0.468
 O  C    11    9      2    0     1.213   1.031   0.857   1.047  -0.262   0.584
 H  N    12    7      1    0     1.021   0.890 -99.000   1.047  -0.176   0.551
 H  C    13    8      1    0     1.102   0.976 -99.000   1.007  -0.162   0.482
 H  C    14   10      1    0     1.089   0.976 -99.000   1.046  -0.168   0.482
 H  C    15   10      1    0     1.090   0.976 -99.000   1.046  -0.168   0.482
 H  C    16   10      1    0     1.091   0.976 -99.000   1.046  -0.168   0.482
 N  C    17    9      2    0     1.377   1.263   0.502   1.047  -0.234   0.524
 C  N    18   17      1    0     1.450   1.326 -99.000   1.047  -0.153   0.496
 C  C    19   18      1    0     1.519   1.332 -99.000   1.001  -0.160   0.475
 C  C    20   18      1    0     1.540   1.370 -99.000   1.028  -0.153   0.468
 O  C    21   19      2    0     1.215   1.030   0.860   1.047  -0.262   0.584
 C  C    22   20      1    0     1.529   1.370 -99.000   1.014  -0.151   0.468
 C  C    23   20      1    0     1.527   1.370 -99.000   1.014  -0.151   0.468
 H  N    24   17      1    0     1.019   0.890 -99.000   1.047  -0.176   0.551
 H  C    25   18      1    0     1.104   0.976 -99.000   1.007  -0.162   0.482
 H  C    26   20      1    0     1.105   0.976 -99.000   1.031  -0.166   0.482
 H  C    27   22      1    0     1.089   0.976 -99.000   1.045  -0.168   0.482
 H  C    28   22      1    0     1.090   0.976 -99.000   1.045  -0.168   0.482
 H  C    29   22      1    0     1.090   0.976 -99.000   1.045  -0.168   0.482
 H  C    30   23      1    0     1.088   0.976 -99.000   1.045  -0.168   0.482
 H  C    31   23      1    0     1.091   0.976 -99.000   1.045  -0.168   0.482
 H  C    32   23      1    0     1.090   0.976 -99.000   1.045  -0.168   0.482
 N  C    33   19      2    0     1.388   1.264   0.496   1.047  -0.233   0.524
 C  N    34   33      1    0     1.454   1.326 -99.000   1.029  -0.150   0.496
 C  C    35   34      1    0     1.474   1.333 -99.000   1.017  -0.163   0.475
 O  C    36   35      2    0     1.213   1.031   0.857   1.047  -0.262   0.584
 H  N    37   33      1    0     1.022   0.890 -99.000   1.047  -0.176   0.551
 H  C    38   34      1    0     1.098   0.977 -99.000   1.020  -0.164   0.482
 H  C    39   34      1    0     1.102   0.977 -99.000   1.020  -0.164   0.482
 N  C    40   35      2    0     1.371   1.264   0.502   1.047  -0.234   0.524
 C  N    41   40      1    0     1.420   1.326 -99.000   1.036  -0.151   0.496
 C  C    42   41      1    0     1.510   1.332 -99.000   1.009  -0.162   0.475
 O  C    43   42      2    0     1.214   1.018   0.930   1.047  -0.274   0.584
 H  N    44   40      1    0     1.022   0.890 -99.000   1.047  -0.176   0.551
 H  C    45   41      1    0     1.083   0.977 -99.000   1.016  -0.164   0.482
 H  C    46   41      1    0     1.105   0.977 -99.000   1.016  -0.164   0.482
 N  C    47   42      2    0     1.385   1.291   0.346   1.047  -0.203   0.524
 C  N    48   47      2    0     1.456   1.189   0.906   1.006  -0.302   0.524
 H  N    49   47      1    0     1.017   0.890 -99.000   1.047  -0.176   0.551
 H  C    50   48      1    0     1.094   0.949 -99.000   1.029  -0.179   0.490
 H  C    51   48      1    0     1.097   0.949 -99.000   1.029  -0.179   0.490
          #angl  :   82

 angle atoms        phi0    phi      FC  pi rings
    1    7    3   145.000 123.553   0.083 F   0
    2    5    4   108.600 108.459   0.179 F   0
    2    6    4   108.600 107.599   0.179 F   0
    2    6    5   108.600 108.056   0.179 F   0
    7    8    1   115.000 120.829   0.416 F   0
    7   12    1   115.000 121.977   0.341 F   0
    7   12    8   104.000 117.043   0.183 F   0
    8    9    7   109.500 108.991   0.307 F   0
    8   10    7   109.500 112.541   0.306 F   0
    8   10    9   109.500 110.886   0.305 F   0
    8   13    7   109.500 106.126   0.253 F   0
    8   13    9   109.500 108.243   0.252 F   0
    8   13   10   109.500 109.861   0.251 F   0
    9   11    8   120.000 118.850   0.178 F   0
    9   17    8   120.000 117.723   0.243 F   0
    9   17   11   120.000 123.427   0.176 F   0
   10   14    8   109.500 109.898   0.251 F   0
   10   15    8   109.500 111.310   0.251 F   0
   10   15   14   108.600 107.685   0.208 F   0
   10   16    8   109.500 111.280   0.251 F   0
   10   16   14   108.600 108.108   0.208 F   0
   10   16   15   108.600 108.432   0.208 F   0
   17   18    9   115.000 120.749   0.408 F   0
   17   24    9   115.000 120.907   0.333 F   0
   17   24   18   104.000 115.998   0.181 F   0
   18   19   17   109.500 108.349   0.306 F   0
   18   20   17   109.500 113.669   0.306 F   0
   18   20   19   109.500 113.538   0.305 F   0
   18   25   17   109.500 105.564   0.253 F   0
   18   25   19   109.500 107.260   0.252 F   0
   18   25   20   109.500 107.969   0.251 F   0
   19   21   18   120.000 119.435   0.179 F   0
   19   33   18   120.000 119.561   0.244 F   0
   19   33   21   120.000 120.900   0.178 F   0
   20   22   18   109.500 110.282   0.304 F   0
   20   23   18   109.500 112.305   0.304 F   0
   20   23   22   109.500 111.188   0.305 F   0
   20   26   18   109.500 106.921   0.251 F   0
   20   26   22   109.500 108.321   0.251 F   0
   20   26   23   109.500 107.615   0.251 F   0
   22   27   20   109.500 110.617   0.251 F   0
   22   28   20   109.500 111.602   0.251 F   0
   22   28   27   108.600 107.650   0.208 F   0
   22   29   20   109.500 111.475   0.251 F   0
   22   29   27   108.600 107.306   0.208 F   0
   22   29   28   108.600 108.002   0.208 F   0
   23   30   20   109.500 111.242   0.251 F   0
   23   31   20   109.500 111.236   0.251 F   0
   23   31   30   108.600 107.388   0.208 F   0
   23   32   20   109.500 111.525   0.251 F   0
   23   32   30   108.600 107.259   0.208 F   0
   23   32   31   108.600 107.989   0.208 F   0
   33   34   19   115.000 118.244   0.412 F   0
   33   37   19   115.000 119.394   0.336 F   0
   33   37   34   104.000 113.581   0.182 F   0
   34   35   33   109.500 114.913   0.307 F   0
   34   38   33   109.500 107.055   0.253 F   0
   34   38   35   109.500 110.043   0.251 F   0
   34   39   33   109.500 109.090   0.253 F   0
   34   39   35   109.500 109.596   0.251 F   0
   34   39   38   108.600 105.723   0.209 F   0
   35   36   34   120.000 120.993   0.178 F   0
   35   40   34   120.000 115.761   0.243 F   0
   35   40   36   120.000 123.237   0.177 F   0
   40   41   35   115.000 120.160   0.409 F   0
   40   44   35   115.000 121.949   0.334 F   0
   40   44   41   104.000 115.780   0.182 F   0
   41   42   40   109.500 111.394   0.307 F   0
   41   45   40   109.500 109.380   0.253 F   0
   41   45   42   109.500 112.739   0.252 F   0
   41   46   40   109.500 107.464   0.253 F   0
   41   46   42   109.500 108.088   0.252 F   0
   41   46   45   108.600 107.557   0.209 F   0
   42   43   41   120.000 118.005   0.177 F   0
   42   47   41   120.000 122.467   0.241 F   0
   42   47   43   120.000 119.528   0.174 F   0
   47   48   42   113.000 126.887   0.042 F   0
   47   49   42   113.000 118.332   0.212 F   0
   47   49   48   113.000 113.658   0.105 F   0
   48   50   47   120.000 109.146   0.204 F   0
   48   51   47   120.000 110.617   0.204 F   0
   48   51   50   120.000 106.190   0.167 F   0
 torsion atoms        nrot   rings    phi0    phi      FC
    7    1    8    3   2      0     180.000   2.881   0.634
    7    1   12    3   2      0     180.000 178.281   0.940
    8    7    9    1   3      0     180.000  62.609   0.023
    8    7    9   12   3      0     180.000 113.011   0.032
    8    7   10    1   3      0     180.000 173.951   0.023
    8    7   10   12   3      0     180.000  10.429   0.030
    8    7   13    1   3      0     180.000  53.759   0.033
    8    7   13   12   3      0     180.000 130.622   0.045
    9    8   11    7   3      0     180.000  59.710   0.067
    9    8   11   10   3      0     180.000  64.710   0.078
    9    8   11   13   3      0     180.000 174.717   0.116
    9    8   17    7   3      0     180.000 120.385   0.042
    9    8   17   10   3      0     180.000 115.195   0.049
    9    8   17   13   3      0     180.000   5.378   0.073
   10    8   14    7   3      0     180.000  62.707   0.119
   10    8   14    9   3      0     180.000  59.671   0.147
   10    8   14   13   3      0     180.000 179.280   0.209
   10    8   15    7   3      0     180.000 178.085   0.119
   10    8   15    9   3      0     180.000  59.537   0.147
   10    8   15   13   3      0     180.000  60.072   0.209
   10    8   16    7   3      0     180.000  57.010   0.119
   10    8   16    9   3      0     180.000 179.388   0.147
   10    8   16   13   3      0     180.000  61.003   0.209
   17    9   18    8   2      0     180.000 172.156   0.624
   17    9   18   11   2      0     180.000   7.744   0.846
   17    9   24    8   2      0     180.000  10.239   0.926
   17    9   24   11   2      0     180.000 169.662   1.255
   18   17   19    9   3      0     180.000  60.320   0.023
   18   17   19   24   3      0     180.000 102.445   0.033
   18   17   20    9   3      0     180.000 172.467   0.022
   18   17   20   24   3      0     180.000  24.768   0.031
   18   17   25    9   3      0     180.000  54.319   0.033
   18   17   25   24   3      0     180.000 142.916   0.046
   19   18   21   17   3      0     180.000  68.002   0.066
   19   18   21   20   3      0     180.000  59.286   0.078
   19   18   21   25   3      0     180.000 178.477   0.116
   19   18   33   17   3      0     180.000 108.328   0.042
   19   18   33   20   3      0     180.000 124.384   0.049
   19   18   33   25   3      0     180.000   5.193   0.073
   20   18   22   17   3      0     180.000  61.833   0.076
   20   18   22   17   1      0     180.000  61.833  -0.068
   20   18   22   19   3      0     180.000 173.705   0.093
   20   18   22   25   3      0     180.000  54.921   0.132
   20   18   23   17   3      0     180.000  62.784   0.076
   20   18   23   17   1      0     180.000  62.784  -0.068
   20   18   23   19   3      0     180.000  61.678   0.093
   20   18   23   25   3      0     180.000 179.538   0.132
   20   18   26   17   3      0     180.000 179.395   0.112
   20   18   26   19   3      0     180.000  56.143   0.138
   20   18   26   25   3      0     180.000  62.641   0.196
   22   20   27   18   3      0     180.000  61.357   0.139
   22   20   27   23   3      0     180.000  63.898   0.139
   22   20   27   26   3      0     180.000 178.051   0.207
   22   20   28   18   3      0     180.000 178.816   0.139
   22   20   28   23   3      0     180.000  55.929   0.139
   22   20   28   26   3      0     180.000  62.122   0.207
   22   20   29   18   3      0     180.000  57.954   0.139
   22   20   29   23   3      0     180.000 176.791   0.139
   22   20   29   26   3      0     180.000  58.741   0.207
   23   20   30   18   3      0     180.000  65.566   0.139
   23   20   30   22   3      0     180.000  58.550   0.139
   23   20   30   26   3      0     180.000 177.026   0.207
   23   20   31   18   3      0     180.000  54.105   0.139
   23   20   31   22   3      0     180.000 178.221   0.139
   23   20   31   26   3      0     180.000  63.303   0.207
   23   20   32   18   3      0     180.000 174.732   0.139
   23   20   32   22   3      0     180.000  61.152   0.139
   23   20   32   26   3      0     180.000  57.324   0.207
   33   19   34   18   2      0     180.000 150.588   0.548
   33   19   34   21   2      0     180.000  25.687   0.743
   33   19   37   18   2      0     180.000   5.119   0.813
   33   19   37   21   2      0     180.000 171.155   1.102
   34   33   35   19   3      0     180.000 122.745   0.022
   34   33   35   37   3      0     180.000  89.863   0.032
   34   33   38   19   3      0     180.000   0.214   0.032
   34   33   38   37   3      0     180.000 147.607   0.045
   34   33   39   19   3      0     180.000 113.747   0.032
   34   33   39   37   3      0     180.000  33.645   0.045
   35   34   36   33   3      0     180.000  65.318   0.065
   35   34   36   38   3      0     180.000 173.774   0.114
   35   34   36   39   3      0     180.000  57.920   0.114
   35   34   40   33   3      0     180.000 115.774   0.041
   35   34   40   38   3      0     180.000   5.134   0.072
   35   34   40   39   3      0     180.000 120.988   0.072
   40   35   41   34   2      0     180.000 178.682   0.608
   40   35   41   36   2      0     180.000   0.199   0.823
   40   35   44   34   2      0     180.000  18.534   0.901
   40   35   44   36   2      0     180.000 162.585   1.222
   41   40   42   35   3      0     180.000 111.360   0.022
   41   40   42   44   3      0     180.000  52.445   0.032
   41   40   45   35   3      0     180.000 123.339   0.032
   41   40   45   44   3      0     180.000  72.856   0.045
   41   40   46   35   3      0     180.000   6.858   0.032
   41   40   46   44   3      0     180.000 170.663   0.045
   42   41   43   40   3      0     180.000  44.923   0.066
   42   41   43   45   3      0     180.000 168.332   0.115
   42   41   43   46   3      0     180.000  72.919   0.115
   42   41   47   40   3      0     180.000 135.256   0.041
   42   41   47   45   3      0     180.000  11.847   0.072
   42   41   47   46   3      0     180.000 106.902   0.072
   47   42   48   41   2      0     180.000   5.656   0.341
   47   42   48   43   2      0     180.000 174.163   0.462
   47   42   49   41   2      0     180.000 172.717   0.486
   47   42   49   43   2      0     180.000   7.102   0.659
   48   47   50   42   2      0     180.000 119.535   1.385
   48   47   50   49   2      0     180.000  72.890   1.974
   48   47   51   42   2      0     180.000   3.050   1.385
   48   47   51   49   2      0     180.000 170.625   1.974
 out-of-plane atoms          phi0    phi      FC
    7   12    1    8          0.000  -3.949   0.338
    9   11   17    8          0.000  -0.088  23.242
   17   24    9   18          0.000 -15.471   0.033
   19   21   33   18          0.000   3.240  21.800
   33   37   19   34          0.000  29.958   0.254
   35   36   40   34          0.000  -1.008  23.827
   40   44   35   41          0.000  14.828   0.141
   42   43   47   41          0.000  -0.153  28.446
   47   49   42   48          0.000  10.316  -0.049
   48   50   51   47          0.000  55.494   0.551
          #tors  :   118
          #nmol  :   6
          #optfrag :   6

 GFN-FF setup done.

           ------------------------------------------------- 
          |                   G F N - F F                   |
          |          A general generic force-field          |
          |                  Version 1.0.3                  | 
           ------------------------------------------------- 
      * Solvation model:               ALPB
        Solvent                        water
        Parameter file                 internal GFN-FF/ALPB
        Dielectric constant                8.0200E+01
        Reference state                gsolv [1 M gas/solution]
        Free energy shift                  3.6494E-04 Eh       2.2900E-01 kcal/mol
        Temperature                        2.9815E+02 K
        Density                            1.0000E+00 kg/L
        Solvent mass                       1.8000E+01 g/mol
        Interaction kernel             P16
        Born radius scaling (c1)           1.5056E+00
        Born radii integrator          GBOBC
        Born offset                        0.0000E+00 a0       0.0000E+00 AA
        H-bond correction              true
        Ion screening                  false
        Surface tension                    1.0000E-05 Eh       1.5569E+01 dyn/cm
        Grid points                               230 per atom
          Number of HB bonds (bound hydrogen)     541
          Number of HB bonds (unbound hydrogen)   73
          Number of XB bonds                      0

 E+G (total)                   0 d,  0 h,  0 min,  0.001 sec
 distance/D3 list               ...        0 min,  0.000 sec (  0.805%)
 non bonded repulsion           ...        0 min,  0.000 sec (  2.088%)
 dCN                            ...        0 min,  0.000 sec (  5.499%)
 EEQ energy and q               ...        0 min,  0.000 sec (  5.248%)
 D3                             ...        0 min,  0.000 sec (  8.624%)
 EEQ gradient                   ...        0 min,  0.000 sec (  4.441%)
 bonds                          ...        0 min,  0.000 sec (  0.761%)
 bend and torsion               ...        0 min,  0.000 sec (  3.140%)
 bonded ATM                     ...        0 min,  0.000 sec (  1.702%)
 HB/XB (incl list setup)        ...        0 min,  0.000 sec (  8.160%)
 GBSA                           ...        0 min,  0.001 sec ( 62.312%)

         :::::::::::::::::::::::::::::::::::::::::::::::::::::
         ::                     SUMMARY                     ::
         :::::::::::::::::::::::::::::::::::::::::::::::::::::
         :: total energy              -8.548192194812 Eh    ::
         :: total w/o Gsolv           -8.496151595816 Eh    ::
         :: total w/o Gsasa/hb        -8.539620664617 Eh    ::
         :: gradient norm              0.182392604693 Eh/a0 ::
         ::.................................................::
         :: bond energy               -8.650133152333 Eh    ::
         :: angle energy               0.027918356442 Eh    ::
         :: torsion energy             0.017335286946 Eh    ::
         :: repulsion energy           0.528503432084 Eh    ::
         :: electrostat energy        -0.366368366864 Eh    ::
         :: dispersion energy         -0.038288870510 Eh    ::
         :: HB energy                 -0.000322905826 Eh    ::
         :: XB energy                  0.000000000000 Eh    ::
         :: bonded atm energy         -0.014795375754 Eh    ::
         :: external energy            0.000000000000 Eh    ::
         :: -> Gsolv                  -0.052040598996 Eh    ::
         ::    -> Gborn               -0.043469068801 Eh    ::
         ::    -> Gsasa                0.005633603038 Eh    ::
         ::    -> Ghb                 -0.014570072487 Eh    ::
         ::    -> Gshift               0.000364939255 Eh    ::
         :: add. restraining           0.000000000000 Eh    ::
         :: total charge              -0.000000000000 e     ::
         ::.................................................::
         :: atomisation energy         0.000000000000 Eh    ::
         :::::::::::::::::::::::::::::::::::::::::::::::::::::

      ----------------------------------------------------------- 
     |                   =====================                   |
     |                        A N C O P T                        |
     |                   =====================                   |
     |               Approximate Normal Coordinate               |
     |                Rational Function Optimizer                |
      ----------------------------------------------------------- 

          ...................................................
          :                      SETUP                      :
          :.................................................:
          :   optimization level         verytight          :
          :   max. optcycles                    10          :
          :   ANC micro-cycles                  10          :
          :   degrees of freedom               147          :
          :.................................................:
          :   RF solver                   davidson          :
          :   write xtbopt.log                true          :
          :   linear?                        false          :
          :   energy convergence         0.1000000E-06 Eh   :
          :   grad. convergence          0.2000000E-03 Eh/α :
          :   maxmium RF displ.          1.0000000          :
          :   Hlow (freq-cutoff)         0.1000000E-01      :
          :   Hmax (freq-cutoff)         5.0000000          :
          :   S6 in model hess.         20.0000000          :
          ...................................................

generating ANC from model Hessian ...
Using GFN-FF Lindh-Hessian
 Shifting diagonal of input Hessian by    0.0000000000000000     
 Lowest  eigenvalues of input Hessian
    0.000000    0.000000    0.000000    0.000000    0.000000    0.000000
    0.019823    0.030086    0.052196    0.057760    0.067488    0.084565
    0.096391    0.115799    0.138692    0.141015    0.151189    0.165653
 Highest eigenvalues
    3.332377    3.460684    3.538814    3.617617    3.891538    4.116058


........................................................................
.............................. CYCLE    1 ..............................
........................................................................
     iter. time                 ...        0 min,  0.001 sec
 * total energy  :    -8.5481922 Eh     change        0.0000000E+00 Eh
   gradient norm :     0.1823926 Eh/α   predicted     0.0000000E+00 (    NaN%)
   displ. norm   :     0.1096878 α      lambda       -0.1454584E-01
   maximum displ.:     0.0408535 α      in ANC's #49, #71, #138, ...

........................................................................
.............................. CYCLE    2 ..............................
........................................................................
     iter. time                 ...        0 min,  0.001 sec
 * total energy  :    -8.5578723 Eh     change       -0.9680111E-02 Eh
   gradient norm :     0.0668654 Eh/α   predicted    -0.7376087E-02 ( -23.80%)
   displ. norm   :     0.0598527 α      lambda       -0.3094680E-02
   maximum displ.:     0.0171869 α      in ANC's #71, #138, #49, ...

........................................................................
.............................. CYCLE    3 ..............................
........................................................................
     iter. time                 ...        0 min,  0.001 sec
 * total energy  :    -8.5595670 Eh     change       -0.1694673E-02 Eh
   gradient norm :     0.0186495 Eh/α   predicted    -0.1552929E-02 (  -8.36%)
   displ. norm   :     0.0203226 α      lambda       -0.2049381E-03
   maximum displ.:     0.0064949 α      in ANC's #2, #15, #9, ...

........................................................................
.............................. CYCLE    4 ..............................
........................................................................
     iter. time                 ...        0 min,  0.001 sec
 * total energy  :    -8.5597189 Eh     change       -0.1518722E-03 Eh
   gradient norm :     0.0096102 Eh/α   predicted    -0.1090642E-03 ( -28.19%)
   displ. norm   :     0.0168274 α      lambda       -0.7936698E-04
   maximum displ.:     0.0093314 α      in ANC's #2, #9, #15, ...

........................................................................
.............................. CYCLE    5 ..............................
........................................................................
     iter. time                 ...        0 min,  0.001 sec
 * total energy  :    -8.5597623 Eh     change       -0.4346545E-04 Eh
   gradient norm :     0.0022525 Eh/α   predicted    -0.3972345E-04 (  -8.61%)
   displ. norm   :     0.0059029 α      lambda       -0.4140781E-05
   maximum displ.:     0.0050428 α      in ANC's #2, #1, #38, ...

........................................................................
.............................. CYCLE    6 ..............................
........................................................................
     iter. time                 ...        0 min,  0.001 sec
 * total energy  :    -8.5597653 Eh     change       -0.3002986E-05 Eh
   gradient norm :     0.0010075 Eh/α   predicted    -0.2079749E-05 ( -30.74%)
   displ. norm   :     0.0139882 α      lambda       -0.2535271E-05
   maximum displ.:     0.0122677 α      in ANC's #2, #1, #4, ...

........................................................................
.............................. CYCLE    7 ..............................
........................................................................
     iter. time                 ...        0 min,  0.001 sec
 * total energy  :    -8.5597674 Eh     change       -0.2045988E-05 Eh
   gradient norm :     0.0012329 Eh/α   predicted    -0.1397643E-05 ( -31.69%)
   displ. norm   :     0.0067405 α      lambda       -0.9521932E-06
   maximum displ.:     0.0058347 α      in ANC's #2, #1, #4, ...

........................................................................
.............................. CYCLE    8 ..............................
........................................................................
     iter. time                 ...        0 min,  0.001 sec
 * total energy  :    -8.5597686 Eh     change       -0.1218304E-05 Eh
   gradient norm :     0.0008248 Eh/α   predicted    -0.4803876E-06 ( -60.57%)
   displ. norm   :     0.0231501 α      lambda       -0.2084231E-05
   maximum displ.:     0.0203710 α      in ANC's #2, #1, #3, ...

........................................................................
.............................. CYCLE    9 ..............................
........................................................................
     iter. time                 ...        0 min,  0.001 sec
 * total energy  :    -8.5597704 Eh     change       -0.1806107E-05 Eh
   gradient norm :     0.0003816 Eh/α   predicted    -0.1070392E-05 ( -40.73%)
   displ. norm   :     0.0049921 α      lambda       -0.1614910E-06
   maximum displ.:     0.0042917 α      in ANC's #2, #1, #9, ...

........................................................................
.............................. CYCLE   10 ..............................
........................................................................
     iter. time                 ...        0 min,  0.001 sec
 * total energy  :    -8.5597706 Eh     change       -0.2247568E-06 Eh
   gradient norm :     0.0002355 Eh/α   predicted    -0.1035359E-06 ( -53.93%)
   displ. norm   :     0.0038007 α      lambda       -0.1118151E-06
   maximum displ.:     0.0033507 α      in ANC's #2, #1, #9, ...

   *** FAILED TO CONVERGE GEOMETRY OPTIMIZATION IN 10 ITERATIONS ***


 ANCopt (total)                0 d,  0 h,  0 min,  0.013 sec
 optimizer setup                ...        0 min,  0.000 sec (  0.991%)
 model hessian                  ...        0 min,  0.000 sec (  3.775%)
 ANC generation                 ...        0 min,  0.001 sec (  9.977%)
 coordinate transformation      ...        0 min,  0.000 sec (  0.412%)
 single point calculation       ...        0 min,  0.010 sec ( 76.375%)
 optimization log               ...        0 min,  0.001 sec (  4.485%)
 hessian update                 ...        0 min,  0.000 sec (  0.586%)
 rational function              ...        0 min,  0.000 sec (  2.049%)

================
 final structure:
================
ATOM      1  C   ALA A   6     -12.355 -14.197   9.363  1.00  0.00           C  
ATOM      2  CB  ALA A   6     -14.292 -15.562   8.446  1.00  0.00           C  
ATOM      3  O   ALA A   6     -12.773 -13.112   9.013  1.00  0.00           O  
ATOM      4  HB1 ALA A   6     -13.704 -15.877   7.608  1.00  0.00           H  
ATOM      5  HB2 ALA A   6     -15.016 -16.321   8.707  1.00  0.00           H  
ATOM      6  HB3 ALA A   6     -14.807 -14.649   8.206  1.00  0.00           H  
ATOM      7  N   ALA A   7     -11.052 -14.544   9.454  1.00  0.00           N  
ATOM      8  CA  ALA A   7     -10.010 -13.586   9.123  1.00  0.00           C  
ATOM      9  C   ALA A   7     -10.123 -13.229   7.659  1.00  0.00           C  
ATOM     10  CB  ALA A   7      -8.621 -14.100   9.451  1.00  0.00           C  
ATOM     11  O   ALA A   7     -10.016 -14.109   6.830  1.00  0.00           O  
ATOM     12  H   ALA A   7     -10.747 -15.491   9.698  1.00  0.00           H  
ATOM     13  HA  ALA A   7     -10.228 -12.685   9.717  1.00  0.00           H  
ATOM     14  HB1 ALA A   7      -8.401 -14.985   8.855  1.00  0.00           H  
ATOM     15  HB2 ALA A   7      -7.861 -13.352   9.226  1.00  0.00           H  
ATOM     16  HB3 ALA A   7      -8.537 -14.371  10.503  1.00  0.00           H  
ATOM     17  N   VAL A   8     -10.341 -11.908   7.337  1.00  0.00           N  
ATOM     18  CA  VAL A   8     -10.289 -11.465   5.955  1.00  0.00           C  
ATOM     19  C   VAL A   8      -8.900 -11.748   5.414  1.00  0.00           C  
ATOM     20  CB  VAL A   8     -10.735 -10.000   5.765  1.00  0.00           C  
ATOM     21  O   VAL A   8      -7.948 -11.132   5.849  1.00  0.00           O  
ATOM     22  CG1 VAL A   8     -12.191  -9.828   6.195  1.00  0.00           C  
ATOM     23  CG2 VAL A   8      -9.823  -9.015   6.494  1.00  0.00           C  
ATOM     24  H   VAL A   8     -10.269 -11.179   8.046  1.00  0.00           H  
ATOM     25  HA  VAL A   8     -10.997 -12.109   5.412  1.00  0.00           H  
ATOM     26  HB  VAL A   8     -10.663  -9.783   4.684  1.00  0.00           H  
ATOM     27 HG11 VAL A   8     -12.310 -10.067   7.251  1.00  0.00           H  
ATOM     28 HG12 VAL A   8     -12.535  -8.804   6.047  1.00  0.00           H  
ATOM     29 HG13 VAL A   8     -12.853 -10.490   5.636  1.00  0.00           H  
ATOM     30 HG21 VAL A   8      -9.888  -9.143   7.573  1.00  0.00           H  
ATOM     31 HG22 VAL A   8      -8.780  -9.158   6.211  1.00  0.00           H  
ATOM     32 HG23 VAL A   8     -10.094  -7.982   6.274  1.00  0.00           H  
ATOM     33  N   GLY A   9      -8.725 -12.761   4.480  1.00  0.00           N  
ATOM     34  CA  GLY A   9      -7.452 -13.465   4.461  1.00  0.00           C  
ATOM     35  C   GLY A   9      -6.754 -13.436   3.156  1.00  0.00           C  
ATOM     36  O   GLY A   9      -7.210 -14.009   2.190  1.00  0.00           O  
ATOM     37  H   GLY A   9      -9.520 -13.349   4.224  1.00  0.00           H  
ATOM     38  HA2 GLY A   9      -6.820 -13.010   5.230  1.00  0.00           H  
ATOM     39  HA3 GLY A   9      -7.610 -14.505   4.768  1.00  0.00           H  
ATOM     40  N   GLY A  10      -5.557 -12.766   3.137  1.00  0.00           N  
ATOM     41  CA  GLY A  10      -4.803 -12.696   1.929  1.00  0.00           C  
ATOM     42  C   GLY A  10      -4.767 -11.290   1.383  1.00  0.00           C  
ATOM     43  O   GLY A  10      -5.796 -10.664   1.354  1.00  0.00           O  
ATOM     44  H   GLY A  10      -5.298 -12.099   3.867  1.00  0.00           H  
ATOM     45  HA2 GLY A  10      -3.808 -13.106   2.120  1.00  0.00           H  
ATOM     46  HA3 GLY A  10      -5.292 -13.348   1.196  1.00  0.00           H  
ATOM     47  N   GLY A  11      -3.557 -10.740   0.930  1.00  0.00           N  
ATOM     48  CA  GLY A  11      -2.305 -11.316   0.802  1.00  0.00           C  
ATOM     49  H   GLY A  11      -3.648  -9.815   0.474  1.00  0.00           H  
ATOM     50  HA2 GLY A  11      -1.558 -10.822   1.407  1.00  0.00           H  
ATOM     51  HA3 GLY A  11      -2.333 -12.363   1.126  1.00  0.00           H  
END

 Bond Distances (Angstroems)
 ---------------------------
C1-O3=1.2141         C1-N7=1.3518         C2-H4=1.0713         C2-H5=1.0810         C2-H6=1.0750         O3-C1=1.2141         
H4-C2=1.0713         H5-C2=1.0810         H6-C2=1.0750         N7-C1=1.3518         N7-C8=1.4532         N7-H12=1.0240        
C8-N7=1.4532         C8-C9=1.5116         C8-C10=1.5166        C8-H13=1.1012        C9-C8=1.5116         C9-O11=1.2135        
C9-N17=1.3774        C10-C8=1.5166        C10-H14=1.0894       C10-H15=1.0903       C10-H16=1.0902       O11-C9=1.2135        
H12-N7=1.0240        H13-C8=1.1012        H14-C10=1.0894       H15-C10=1.0903       H16-C10=1.0902       N17-C9=1.3774        
N17-C18=1.4524       N17-H24=1.0195       C18-N17=1.4524       C18-C19=1.5169       C18-C20=1.5436       C18-H25=1.0999       
C19-C18=1.5169       C19-O21=1.2144       C19-N33=1.3889       C20-C18=1.5436       C20-C22=1.5285       C20-C23=1.5274       
C20-H26=1.1046       O21-C19=1.2144       C22-C20=1.5285       C22-H27=1.0894       C22-H28=1.0904       C22-H29=1.0903       
C23-C20=1.5274       C23-H30=1.0885       C23-H31=1.0907       C23-H32=1.0903       H24-N17=1.0195       H25-C18=1.0999       
H26-C20=1.1046       H27-C22=1.0894       H28-C22=1.0904       H29-C22=1.0903       H30-C23=1.0885       H31-C23=1.0907       
H32-C23=1.0903       N33-C19=1.3889       N33-C34=1.4551       N33-H37=1.0219       C34-N33=1.4551       C34-C35=1.4798       
C34-H38=1.0950       C34-H39=1.0958       C35-C34=1.4798       C35-O36=1.2128       C35-N40=1.3720       O36-C35=1.2128       
H37-N33=1.0219       H38-C34=1.0950       H39-C34=1.0958       N40-C35=1.3720       N40-C41=1.4262       N40-H44=1.0218       
C41-N40=1.4262       C41-C42=1.5087       C41-H45=1.0927       C41-H46=1.0965       C42-C41=1.5087       C42-O43=1.2046       
C42-N47=1.4034       O43-C42=1.2046       H44-N40=1.0218       H45-C41=1.0927       H46-C41=1.0965       N47-C42=1.4034       
N47-C48=1.3846       N47-H49=1.0358       C48-N47=1.3846       C48-H50=1.0804       C48-H51=1.0962       H49-N47=1.0358       
H50-C48=1.0804       H51-C48=1.0962       
 C  H  Rav=1.0904 sigma=0.0080  Rmin=1.0713  Rmax=1.1046    21
 C  C  Rav=1.5167 sigma=0.0174  Rmin=1.4798  Rmax=1.5436     8
 N  H  Rav=1.0246 sigma=0.0058  Rmin=1.0195  Rmax=1.0358     5
 N  C  Rav=1.4065 sigma=0.0359  Rmin=1.3518  Rmax=1.4551    10
 O  C  Rav=1.2119 sigma=0.0037  Rmin=1.2046  Rmax=1.2144     5

 selected bond angles (degree)
 --------------------
N7-C1-O3=125.53                H5-C2-H4=110.47                H6-C2-H4=109.76                H6-C2-H5=109.30                
C8-N7-C1=120.40                H12-N7-C1=122.75               H12-N7-C8=116.75               C9-C8-N7=108.82                
C10-C8-N7=112.57               C10-C8-C9=110.95               H13-C8-N7=105.98               H13-C8-C9=108.33               
H13-C8-C10=109.99              O11-C9-C8=118.95               N17-C9-C8=117.70               N17-C9-O11=123.35              
H14-C10-C8=110.00              H15-C10-C8=111.22              H15-C10-H14=107.66             H16-C10-C8=111.35              
H16-C10-H14=108.08             H16-C10-H15=108.41             

 selected dihedral angles (degree)
 ---------------------------------
C8-N7-C1-O3=  0.15            H12-N7-C1-O3=183.95           C9-C8-N7-C1=296.27            C9-C8-N7-H12=112.69           
C10-C8-N7-C1=172.84           C10-C8-N7-H12=349.27          H13-C8-N7-C1= 52.57           H13-C8-N7-H12=229.00          
O11-C9-C8-N7=300.11           O11-C9-C8-C10= 64.50          O11-C9-C8-H13=185.32          N17-C9-C8-N7=120.27           
N17-C9-C8-C10=244.65          N17-C9-C8-H13=  5.48          H14-C10-C8-N7= 62.75          H14-C10-C8-C9=300.52          
H14-C10-C8-H13=180.68         H15-C10-C8-N7=181.92          H15-C10-C8-C9= 59.69          H15-C10-C8-H13=299.85         
H16-C10-C8-N7=302.96          H16-C10-C8-C9=180.73          H16-C10-C8-H13= 60.89         

 CMA Distance (Angstroems)
 ---------------------------
R(CMA):  7.4362
           -------------------------------------------------
          |                Final Singlepoint                |
           -------------------------------------------------
         :::::::::::::::::::::::::::::::::::::::::::::::::::::
         ::                     SUMMARY                     ::
         :::::::::::::::::::::::::::::::::::::::::::::::::::::
         :: total energy              -8.559770718201 Eh    ::
         :: total w/o Gsolv           -8.508040959834 Eh    ::
         :: total w/o Gsasa/hb        -8.551338110512 Eh    ::
         :: gradient norm              0.000084447576 Eh/a0 ::
         ::.................................................::
         :: bond energy               -8.672074397748 Eh    ::
         :: angle energy               0.026470730232 Eh    ::
         :: torsion energy             0.019214133686 Eh    ::
         :: repulsion energy           0.532905615931 Eh    ::
         :: electrostat energy        -0.367076632218 Eh    ::
         :: dispersion energy         -0.038279771939 Eh    ::
         :: HB energy                 -0.000334529045 Eh    ::
         :: XB energy                  0.000000000000 Eh    ::
         :: bonded atm energy         -0.014519289434 Eh    ::
         :: external energy            0.000000000000 Eh    ::
         :: -> Gsolv                  -0.051729758367 Eh    ::
         ::    -> Gborn               -0.043297150678 Eh    ::
         ::    -> Gsasa                0.005675003102 Eh    ::
         ::    -> Ghb                 -0.014472550046 Eh    ::
         ::    -> Gshift               0.000364939255 Eh    ::
         :: add. restraining           0.005653180700 Eh    ::
         :: total charge               0.000000000000 e     ::
         ::.................................................::
         :: atomisation energy         0.000000000000 Eh    ::
         :::::::::::::::::::::::::::::::::::::::::::::::::::::

           -------------------------------------------------
          |                Property Printout                |
           -------------------------------------------------
           -------------------------------------------------
          |                Geometry Summary                 |
           -------------------------------------------------

      molecular mass/u    :      356.3980386
   center of mass at/Å    :       -8.6624738     -12.4283516       5.4489885
  moments of inertia/u·Å² :        0.1292338E+04   0.6241755E+04   0.6747157E+04
rotational constants/cm⁻¹ :        0.1304429E-01   0.2700784E-02   0.2498479E-02

 * 44 selected distances

     #   Z          #   Z                                           value/Å
     2   6  C       4   1  H                                      1.0713470
     2   6  C       5   1  H                                      1.0810001
     2   6  C       6   1  H                                      1.0749628
     1   6  C       7   7  N                                      1.3517625
     7   7  N       8   6  C                                      1.4532060
     8   6  C      10   6  C                                      1.5165693
     9   6  C      11   8  O                                      1.2135085
     7   7  N      12   1  H                                      1.0240147
     8   6  C      13   1  H                                      1.1011938
    10   6  C      14   1  H                                      1.0893868
    10   6  C      15   1  H                                      1.0903313
    10   6  C      16   1  H                                      1.0902434
     9   6  C      17   7  N                                      1.3773779
    17   7  N      18   6  C                                      1.4523686
    19   6  C      21   8  O                                      1.2143909
    20   6  C      22   6  C                                      1.5285194 (max)
    20   6  C      23   6  C                                      1.5273842
    17   7  N      24   1  H                                      1.0195324 (min)
    18   6  C      25   1  H                                      1.0998824
    20   6  C      26   1  H                                      1.1045933
    22   6  C      27   1  H                                      1.0894480
    22   6  C      28   1  H                                      1.0903705
    22   6  C      29   1  H                                      1.0903069
    23   6  C      30   1  H                                      1.0884841
    23   6  C      31   1  H                                      1.0906966
    23   6  C      32   1  H                                      1.0903424
    19   6  C      33   7  N                                      1.3888664
    33   7  N      34   6  C                                      1.4550612
    34   6  C      35   6  C                                      1.4798394
    35   6  C      36   8  O                                      1.2127859
    33   7  N      37   1  H                                      1.0218934
    34   6  C      38   1  H                                      1.0950023
    34   6  C      39   1  H                                      1.0958206
    35   6  C      40   7  N                                      1.3720476
    40   7  N      41   6  C                                      1.4261527
    42   6  C      43   8  O                                      1.2046315
    40   7  N      44   1  H                                      1.0218165
    41   6  C      45   1  H                                      1.0926793
    41   6  C      46   1  H                                      1.0964939
    42   6  C      47   7  N                                      1.4033982
    47   7  N      48   6  C                                      1.3846411
    47   7  N      49   1  H                                      1.0358136
    48   6  C      50   1  H                                      1.0804091
    48   6  C      51   1  H                                      1.0962161

 * 5 distinct bonds (by element types)

   Z      Z             #   av. dist./Å        max./Å        min./Å
   1 H    6 C          21     1.0904386     1.1045933     1.0713470
   6 C    6 C           4     1.5130781     1.5285194     1.4798394
   1 H    7 N           5     1.0246141     1.0358136     1.0195324
   6 C    7 N          10     1.4064882     1.4550612     1.3517625
   6 C    8 O           4     1.2113292     1.2143909     1.2046315


optimized geometry written to: xtbopt.pdb


           -------------------------------------------------
          | TOTAL ENERGY               -8.559770718201 Eh   |
          | GRADIENT NORM               0.000084447576 Eh/α |
           -------------------------------------------------
########################################################################
[WARNING] Runtime exception occurred
-1- gfnff_setup: Could not read topology file.
########################################################################

------------------------------------------------------------------------
 unit  open   action     filename
   10 false : read       xtb_settings.inp
   10 false : read       substructure_20.pdb
   10 false : read       xtb_settings.inp
   10 false : written    gfnff_topo
   10 false : written    gfnff_adjacency
   10 false : written    gfnff_charges
   10 false : deleted    .xtboptok
   10 false : replaced   xtbopt.log
   11 false : created    .xtboptok
   11 false : replaced   gfnff_charges
   10 false : replaced   xtbopt.pdb

------------------------------------------------------------------------
 * finished run on 2025/05/27 at 09:37:40.221     
------------------------------------------------------------------------
 total:
 * wall-time:     0 d,  0 h,  0 min,  0.019 sec
 *  cpu-time:     0 d,  0 h,  0 min,  0.019 sec
 * ratio c/w:     1.000 speedup
 SCF:
 * wall-time:     0 d,  0 h,  0 min,  0.001 sec
 *  cpu-time:     0 d,  0 h,  0 min,  0.001 sec
 * ratio c/w:     0.999 speedup
 ANC optimizer:
 * wall-time:     0 d,  0 h,  0 min,  0.014 sec
 *  cpu-time:     0 d,  0 h,  0 min,  0.014 sec
 * ratio c/w:     1.000 speedup

