51
 energy: -8.548174775302 gnorm: 0.182457217857 xtb: 6.6.1 (8d0f1dd)
 C         -12.37400000000000      -14.21100000000000        9.34200000000000
 C         -14.27900000000000      -15.55700000000000        8.47200000000000
 O         -12.76400000000000      -13.10900000000000        9.01900000000000
 H         -13.70500000000000      -15.87800000000000        7.60200000000000
 H         -15.01900000000000      -16.32500000000000        8.70000000000000
 H         -14.81100000000000      -14.64600000000000        8.19800000000000
 N         -11.04600000000000      -14.54300000000000        9.45600000000000
 C         -10.01200000000000      -13.58800000000000        9.12300000000000
 C         -10.13300000000000      -13.23100000000000        7.65600000000000
 C          -8.62100000000000      -14.10000000000000        9.44300000000000
 O          -9.99300000000000      -14.10800000000000        6.82900000000000
 H         -10.74300000000000      -15.48600000000000        9.70500000000000
 H         -10.22500000000000      -12.68400000000000        9.71600000000000
 H          -8.40500000000000      -14.98600000000000        8.84700000000000
 H          -7.86000000000000      -13.35300000000000        9.21200000000000
 H          -8.53100000000000      -14.36900000000000       10.49600000000000
 N         -10.39300000000000      -11.91700000000000        7.33300000000000
 C         -10.28900000000000      -11.46200000000000        5.95800000000000
 C          -8.87700000000000      -11.75000000000000        5.47100000000000
 C         -10.71500000000000       -9.99500000000000        5.75900000000000
 O          -7.93700000000000      -11.21700000000000        6.02700000000000
 C         -12.18000000000000       -9.81100000000000        6.14900000000000
 C          -9.81200000000000       -9.02300000000000        6.51700000000000
 H         -10.32400000000000      -11.18800000000000        8.04100000000000
 H         -10.97600000000000      -12.10400000000000        5.38000000000000
 H         -10.61200000000000       -9.77600000000000        4.68200000000000
 H         -12.33100000000000      -10.05500000000000        7.20100000000000
 H         -12.51000000000000       -8.78300000000000        5.99600000000000
 H         -12.83300000000000      -10.46400000000000        5.56900000000000
 H          -9.91200000000000       -9.15200000000000        7.59300000000000
 H          -8.76300000000000       -9.18100000000000        6.26500000000000
 H         -10.06200000000000       -7.98600000000000        6.28900000000000
 N          -8.67700000000000      -12.67700000000000        4.45300000000000
 C          -7.45100000000000      -13.46200000000000        4.45500000000000
 C          -6.72200000000000      -13.48300000000000        3.17300000000000
 O          -7.09800000000000      -14.17600000000000        2.25200000000000
 H          -9.47800000000000      -13.18600000000000        4.07500000000000
 H          -6.80800000000000      -13.05200000000000        5.24600000000000
 H          -7.68700000000000      -14.49100000000000        4.76400000000000
 N          -5.59600000000000      -12.70100000000000        3.11500000000000
 C          -4.79400000000000      -12.69900000000000        1.94100000000000
 C          -4.78100000000000      -11.34100000000000        1.28200000000000
 O          -5.84000000000000      -10.75900000000000        1.16000000000000
 H          -5.42600000000000      -11.94400000000000        3.78100000000000
 H          -3.79900000000000      -13.05100000000000        2.19000000000000
 H          -5.23600000000000      -13.42100000000000        1.23500000000000
 N          -3.61900000000000      -10.75200000000000        0.81600000000000
 C          -2.28900000000000      -11.34700000000000        0.78200000000000
 H          -3.69500000000000       -9.89300000000000        0.27600000000000
 H          -1.61700000000000      -10.76300000000000        1.41700000000000
 H          -2.30800000000000      -12.36000000000000        1.19900000000000
51
 energy: -8.557868948486 gnorm: 0.067418363384 xtb: 6.6.1 (8d0f1dd)
 C         -12.36251413859791      -14.20407304039764        9.35276795364474
 C         -14.28815858465528      -15.56105302089509        8.45533447834184
 O         -12.76667544758564      -13.10823545836886        9.02043090115988
 H         -13.70573410245805      -15.87639120546930        7.60472104008028
 H         -15.01740800002839      -16.32324535866915        8.69983755409591
 H         -14.80769013903046      -14.64963387482653        8.20064115420851
 N         -11.04830613107265      -14.54066020430987        9.45784338421764
 C         -10.01130467835646      -13.58641821616164        9.12253711244736
 C         -10.13310466972967      -13.23116800479440        7.65623138171749
 C          -8.62099111892912      -14.10013999687410        9.44293044303537
 O          -9.99315821220702      -14.10822881761797        6.82907773538603
 H         -10.74527947245267      -15.48594353007611        9.70564854453408
 H         -10.22405608884557      -12.68328176188529        9.71595169612179
 H          -8.40521867814935      -14.98624151501273        8.84698883093746
 H          -7.85993262805058      -13.35350138703715        9.21177459087366
 H          -8.53066256468890      -14.36928799676726       10.49569872626152
 N         -10.39348205357872      -11.91703436704933        7.33238891489922
 C         -10.28828218156208      -11.46418232926347        5.95583093893619
 C          -8.87671411035167      -11.74994546738692        5.47115896195150
 C         -10.71506163017076       -9.99550067213329        5.75835234683991
 O          -7.93708166577135      -11.21685528988447        6.02708563070973
 C         -12.18026470654063       -9.81131887742393        6.14841675920874
 C          -9.81252355790153       -9.02306122842064        6.51611851587541
 H         -10.32403926813607      -11.18740826693950        8.04078096286534
 H         -10.97571683965160      -12.10399701832743        5.38012300303457
 H         -10.61217888849596       -9.77632299563031        4.68131814124081
 H         -12.33130064834153      -10.05508840756402        7.20016602317125
 H         -12.51023028769065       -8.78331500962349        5.99515716086466
 H         -12.83310110383367      -10.46432419547785        5.56848133032847
 H          -9.91246016735207       -9.15182490881624        7.59229943183975
 H          -8.76337961321170       -9.18094790330410        6.26438234683856
 H         -10.06253789245385       -7.98615013559993        6.28806885284253
 N          -8.67689572922685      -12.67792534417268        4.45468860193634
 C          -7.45141125812070      -13.46410059471629        4.46017884495043
 C          -6.72272850566351      -13.48415381396434        3.17433217315980
 O          -7.09939589989298      -14.17777811919208        2.25337612157746
 H          -9.47787695705472      -13.18669083571698        4.07648557943464
 H          -6.80854629771297      -13.05349384058956        5.24780387120971
 H          -7.68719630801936      -14.49099771764468        4.76695658789812
 N          -5.59680576515226      -12.70230448627590        3.11435758511748
 C          -4.79748133548934      -12.69973337664075        1.93549340361535
 C          -4.78161885753406      -11.34317897896140        1.28248532827190
 O          -5.83489321086957      -10.75792098468873        1.16224146411252
 H          -5.42609167624404      -11.94575767310575        3.78087831062619
 H          -3.79934747627249      -13.05355148612900        2.18932742839424
 H          -5.23724546309240      -13.42201028150812        1.23428511008968
 N          -3.59663054265631      -10.76496843266839        0.82213491223839
 C          -2.30765453236772      -11.32862443791679        0.78816389519902
 H          -3.68388428602080       -9.89604366698403        0.28890049109190
 H          -1.61718345215907      -10.76252586509989        1.40874272601104
 H          -2.31656317656924      -12.34945960201666        1.17862271655553
51
 energy: -8.559566883445 gnorm: 0.018802155642 xtb: 6.6.1 (8d0f1dd)
 C         -12.35593501331218      -14.19981468282676        9.35920495031332
 C         -14.29231126470811      -15.56212636342579        8.44589070845707
 O         -12.77090685959836      -13.11034511189966        9.01619381965862
 H         -13.70463673192022      -15.87654891932488        7.60720689247912
 H         -15.01555024430054      -16.32170025416401        8.70567236961031
 H         -14.80624393666998      -14.64987696412333        8.20422041601308
 N         -11.05088631639803      -14.54133900510009        9.45770656941892
 C         -10.01113408058064      -13.58596844860741        9.12234685691946
 C         -10.13297874955377      -13.23133439852999        7.65655439448209
 C          -8.62107574112384      -14.10017020566195        9.44303558438300
 O          -9.99321603839630      -14.10817167337974        6.82900213398177
 H         -10.74609900519746      -15.48762842716381        9.70366756065422
 H         -10.22412451784696      -12.68332506404470        9.71602981740183
 H          -8.40517041798637      -14.98621450666889        8.84709182620726
 H          -7.86005695946732      -13.35348022346695        9.21186357482067
 H          -8.53060445891565      -14.36953988173963       10.49559114915394
 N         -10.39385070606726      -11.91698683120330        7.33230889891608
 C         -10.28816828977736      -11.46547464223463        5.95466544703686
 C          -8.87652393684590      -11.74967898868746        5.47152738892009
 C         -10.71512355760173       -9.99550134427559        5.75834607108973
 O          -7.93696636788961      -11.21671859902607        6.02729026172087
 C         -12.18034959328522       -9.81132759696052        6.14845175489068
 C          -9.81270024029169       -9.02311811547854        6.51590815275400
 H         -10.32394699913155      -11.18730536004591        8.04096383469954
 H         -10.97591081820465      -12.10391657539102        5.38022421002115
 H         -10.61226536137443       -9.77637983831897        4.68127639038976
 H         -12.33133107120876      -10.05505253297270        7.20008145561290
 H         -12.51027580048044       -8.78333102446749        5.99506716218127
 H         -12.83314542197239      -10.46429945834691        5.56848411117272
 H          -9.91254543753165       -9.15184085064055        7.59217703547143
 H          -8.76349980862216       -9.18101238980898        6.26426011967349
 H         -10.06258857717386       -7.98620165348763        6.28795151099229
 N          -8.67667249477909      -12.67756265253414        4.45482527482524
 C          -7.45097819929970      -13.46452596454433        4.46196469809006
 C          -6.72276867440450      -13.48355434576334        3.17407205772699
 O          -7.09906263714620      -14.17774042866277        2.25315739807757
 H          -9.47761640272639      -13.18614079819312        4.07633885191668
 H          -6.80771295924655      -13.05323123400596        5.24698335454723
 H          -7.68648808347251      -14.49049617537353        4.76651520765799
 N          -5.59714316079899      -12.70235551920403        3.11388246262530
 C          -4.80060029034079      -12.69876194551224        1.93099849645447
 C          -4.78702789417465      -11.34273681917292        1.27929012696062
 O          -5.83660526654453      -10.75740533792269        1.16090705199624
 H          -5.42641865474953      -11.94634147987542        3.78073347958395
 H          -3.80002168534955      -13.05326751919249        2.18889051571547
 H          -5.23767638909620      -13.42320742603704        1.23422778423236
 N          -3.58378229405207      -10.77635811994503        0.82488052277965
 C          -2.31207267154607      -11.31820763771581        0.79342081842327
 H          -3.68324015146092       -9.89824116368416        0.29199704366202
 H          -1.61362985086790      -10.76501886379030        1.41054911997976
 H          -2.31835991650944      -12.34511663739677        1.17410330524760
51
 energy: -8.559720670472 gnorm: 0.009649994454 xtb: 6.6.1 (8d0f1dd)
 C         -12.35503525996261      -14.19805786194647        9.36132108531085
 C         -14.29262990346440      -15.56216264960219        8.44472474056313
 O         -12.77216837714938      -13.11108709096990        9.01429217721023
 H         -13.70394488383553      -15.87714212148279        7.60754609379915
 H         -15.01546930394865      -16.32148362872846        8.70693352464074
 H         -14.80627142486944      -14.64926545079221        8.20534996106628
 N         -11.05151736319020      -14.54224380621306        9.45745627105230
 C         -10.01101303029896      -13.58605287233210        9.12246199966554
 C         -10.13289797498301      -13.23140331551106        7.65672151436812
 C          -8.62109359127861      -14.10024604913607        9.44306531816492
 O          -9.99328145164927      -14.10813087449533        6.82899153239757
 H         -10.74590769686821      -15.48863276208364        9.70236827055660
 H         -10.22414220803995      -12.68344600780058        9.71608881655802
 H          -8.40519961800819      -14.98627277762285        8.84707848334604
 H          -7.86007452821363      -13.35356142441067        9.21186271249558
 H          -8.53065599589831      -14.36969711592598       10.49557172906865
 N         -10.39387708946882      -11.91697530776043        7.33241033262266
 C         -10.28826745415991      -11.46564111820059        5.95461991872130
 C          -8.87654489732711      -11.74955632798227        5.47168645763300
 C         -10.71510542856553       -9.99541834300271        5.75854364147697
 O          -7.93690465627433      -11.21679898672135        6.02734697033079
 C         -12.18030353582549       -9.81128616198920        6.14865716738195
 C          -9.81264555113144       -9.02315647686719        6.51604646345533
 H         -10.32386747750505      -11.18741260354189        8.04110110787195
 H         -10.97599686443800      -12.10395220104681        5.38027888767435
 H         -10.61225492636892       -9.77635008533525        4.68145437550813
 H         -12.33125505083983      -10.05503402227982        7.20028735200173
 H         -12.51021906364157       -8.78328342044331        5.99527720283194
 H         -12.83314199074130      -10.46423930640682        5.56866644094747
 H          -9.91245830654928       -9.15190443696763        7.59231953098004
 H          -8.76344711335941       -9.18105528914925        6.26437597816644
 H         -10.06247779154626       -7.98621187003365        6.28814463827231
 N          -8.67668848113621      -12.67698570759137        4.45434969361099
 C          -7.45089697986046      -13.46434203067596        4.46180530332334
 C          -6.72249121666074      -13.48305767966723        3.17377781315222
 O          -7.09802911161300      -14.17774031022092        2.25296155722504
 H          -9.47765004519175      -13.18538770817178        4.07569678863732
 H          -6.80739633001325      -13.05273987749189        5.24632201085877
 H          -7.68660454380796      -14.49041926409401        4.76549526102340
 N          -5.59683112781430      -12.70215360290357        3.11412965034830
 C          -4.80104263314135      -12.69780224162271        1.93021753968785
 C          -4.78975922449007      -11.34102377412306        1.27716511854069
 O          -5.83850265911309      -10.75717159646166        1.16003277112397
 H          -5.42649790094209      -11.94614143640470        3.78077294182391
 H          -3.80018661893918      -13.05273349130774        2.18889232613464
 H          -5.23734262261986      -13.42339654361865        1.23458081744036
 N          -3.58288245950527      -10.77965220837706        0.82491224002998
 C          -2.30983743927700      -11.31747848308204        0.79486507026660
 H          -3.68603256366711       -9.90018228115907        0.28924202462487
 H          -1.61241989757712      -10.76553377653257        1.41275601679755
 H          -2.31683833522958      -12.34489621971247        1.17697435921010
51
 energy: -8.559763133557 gnorm: 0.002260913085 xtb: 6.6.1 (8d0f1dd)
 C         -12.35479088371508      -14.19668686125691        9.36280827401618
 C         -14.29238010105595      -15.56209704668996        8.44497314286652
 O         -12.77295648945476      -13.11171198571335        9.01285724829748
 H         -13.70357922264397      -15.87755166264553        7.60768853866093
 H         -15.01553515829868      -16.32150301853102        8.70718682141366
 H         -14.80639220381877      -14.64896648674240        8.20578144888211
 N         -11.05174514695648      -14.54300776727123        9.45730982694103
 C         -10.01090127959013      -13.58611061268377        9.12265202718913
 C         -10.13284242922964      -13.23143948839501        7.65686394080207
 C          -8.62110608821212      -14.10025184982094        9.44313684271842
 O          -9.99331852697639      -14.10810033411287        6.82902460077415
 H         -10.74564984105542      -15.48942020430731        9.70136490409916
 H         -10.22418253385574      -12.68351171415232        9.71614470159772
 H          -8.40519877585375      -14.98628088800329        8.84711387651047
 H          -7.86008226279981      -13.35359546996587        9.21189549295437
 H          -8.53070479001500      -14.36975622709751       10.49561797357075
 N         -10.39385746259181      -11.91697772035229        7.33249882681546
 C         -10.28835349736216      -11.46564793338034        5.95471873606142
 C          -8.87658609903349      -11.74945631584793        5.47179988678812
 C         -10.71509077529293       -9.99536573527702        5.75871405385446
 O          -7.93686936827747      -11.21688145176874        6.02740008177300
 C         -12.18027749089834       -9.81127293598918        6.14880969699177
 C          -9.81260943873925       -9.02318038533076        6.51618950660464
 H         -10.32385220388329      -11.18750640688358        8.04120181967364
 H         -10.97602920383664      -12.10399962081263        5.38033449612112
 H         -10.61225056609878       -9.77632283809451        4.68160787980718
 H         -12.33121941373737      -10.05503993898252        7.20045000591509
 H         -12.51019588156100       -8.78326427634385        5.99544473661288
 H         -12.83314724715331      -10.46422111786439        5.56880273925889
 H          -9.91241219814125       -9.15194741480764        7.59245729564822
 H          -8.76341429723722       -9.18107057361960        6.26450117145054
 H         -10.06241542191252       -7.98621365358476        6.28831656550685
 N          -8.67672394089533      -12.67631203451581        4.45376106338453
 C          -7.45101473581994      -13.46419454007250        4.46147816349388
 C          -6.72226187894005      -13.48281291528417        3.17356365414039
 O          -7.09693134188270      -14.17816181447139        2.25293719173937
 H          -9.47774025129964      -13.18445389601814        4.07491795631117
 H          -6.80730339916730      -13.05236505374443        5.24579230139272
 H          -7.68718773451816      -14.49045987174378        4.76448305974580
 N          -5.59646561018529      -12.70214861695049        3.11451312878047
 C          -4.80098581192914      -12.69705091595648        1.93015204796426
 C          -4.79122166766989      -11.33895414491325        1.27576359997304
 O          -5.83952762201121      -10.75668659709878        1.15997433255786
 H          -5.42657187574416      -11.94593716433400        3.78079287985318
 H          -3.80033601768929      -13.05264167793018        2.18890658383640
 H          -5.23706403640023      -13.42331553108447        1.23488218120621
 N          -3.58288147709972      -10.78170960671636        0.82510201556136
 C          -2.30802261978905      -11.31774714374626        0.79552630414740
 H          -3.68800037883314       -9.90225029021528        0.28664711106781
 H          -1.61206935671521      -10.76529658269472        1.41401201806262
 H          -2.31574394412206      -12.34514166618046        1.17912724660408
51
 energy: -8.559765372502 gnorm: 0.000913330509 xtb: 6.6.1 (8d0f1dd)
 C         -12.35480454662480      -14.19648021592626        9.36300328216273
 C         -14.29221283975664      -15.56207968642551        8.44537448874650
 O         -12.77300698488613      -13.11180749461393        9.01272232020786
 H         -13.70365675200932      -15.87750483646099        7.60767505660415
 H         -15.01556349258381      -16.32157836962299        8.70697863930656
 H         -14.80640168522064      -14.64906351227747        8.20564703557736
 N         -11.05166948018984      -14.54306468004446        9.45735407014147
 C         -10.01088128905200      -13.58608993224193        9.12270777170715
 C         -10.13284077583564      -13.23143822973533        7.65688279010795
 C          -8.62110513171910      -14.10023745422329        9.44315608475212
 O          -9.99332035129179      -14.10809883111921        6.82904289792115
 H         -10.74563181874068      -15.48950422207167        9.70126343123487
 H         -10.22418257891124      -12.68349889204079        9.71615869687239
 H          -8.40518783194331      -14.98627269922966        8.84712832023548
 H          -7.86007531648768      -13.35359831730075        9.21190149407106
 H          -8.53069882770982      -14.36975071852090       10.49563424118096
 N         -10.39384460117237      -11.91698683328219        7.33250661561646
 C         -10.28835525074696      -11.46562097736131        5.95476551377762
 C          -8.87658841302546      -11.74944695521283        5.47180884624025
 C         -10.71509344621240       -9.99537238545745        5.75873160263285
 O          -7.93687282518161      -11.21688100912279        6.02741742883936
 C         -12.18028429346887       -9.81127889293220        6.14882342873564
 C          -9.81261498386078       -9.02317966639185        6.51620956089136
 H         -10.32386665406107      -11.18751224252850        8.04121003854004
 H         -10.97602384264750      -12.10400641287925        5.38035227793212
 H         -10.61225944648605       -9.77632000710569        4.68162516458844
 H         -12.33122677749251      -10.05504664454625        7.20046644670986
 H         -12.51020495565381       -8.78326890454935        5.99546514927551
 H         -12.83315445600951      -10.46422911946845        5.56881891176178
 H          -9.91241933685485       -9.15194725591437        7.59247526059006
 H          -8.76342069016437       -9.18106590049320        6.26451845271025
 H         -10.06242583712349       -7.98621259576543        6.28833429937829
 N          -8.67668400275501      -12.67609459948213        4.45357494503602
 C          -7.45109092849790      -13.46420235521326        4.46141388438922
 C          -6.72222984631853      -13.48295454229111        3.17356657658880
 O          -7.09665406041604      -14.17861423664094        2.25307692233123
 H          -9.47772248791936      -13.18411955043897        4.07463491141436
 H          -6.80733229711551      -13.05232554933767        5.24571565345538
 H          -7.68750665683619      -14.49047568077140        4.76433796620696
 N          -5.59643982809152      -12.70224732667847        3.11456708938761
 C          -4.80089677456795      -12.69699299725321        1.93029619822134
 C          -4.79113963386292      -11.33842334781475        1.27571985784215
 O          -5.83956730955797      -10.75668800449647        1.16005928201353
 H          -5.42663143012082      -11.94591019078331        3.78072566900259
 H          -3.80038962856034      -13.05273059242441        2.18885787354486
 H          -5.23706770060777      -13.42323253700023        1.23488573524953
 N          -3.58288133486755      -10.78181597390460        0.82531059881057
 C          -2.30794929071705      -11.31790269835870        0.79555893320763
 H          -3.68794748057346       -9.90256024867128        0.28650623232230
 H          -1.61217557833657      -10.76501113078030        1.41397811646929
 H          -2.31579821715345      -12.34525454279246        1.17905393545698
51
 energy: -8.559765957294 gnorm: 0.000497323214 xtb: 6.6.1 (8d0f1dd)
 C         -12.35477688773261      -14.19634406305049        9.36314967146751
 C         -14.29206488048781      -15.56207461365755        8.44579037866019
 O         -12.77302881528958      -13.11187578402626        9.01267831004705
 H         -13.70379188135253      -15.87739201755593        7.60765446902252
 H         -15.01557684235317      -16.32165639092162        8.70678817157717
 H         -14.80639275091620      -14.64920953711768        8.20546797378793
 N         -11.05156192568383      -14.54305153405432        9.45744675016203
 C         -10.01087468522526      -13.58606111141795        9.12275190535152
 C         -10.13284665445561      -13.23143959776742        7.65689236096474
 C          -8.62110314870282      -14.10023353663765        9.44316528259019
 O          -9.99332573545834      -14.10810043652309        6.82905781171791
 H         -10.74566549247069      -15.48956318838414        9.70119562473285
 H         -10.22417270510956      -12.68348569251108        9.71617630003112
 H          -8.40517668075151      -14.98627222759261        8.84713349650822
 H          -7.86006656536092      -13.35360950082298        9.21190058238417
 H          -8.53068326681747      -14.36975913742198       10.49563901475994
 N         -10.39383842857335      -11.91700134227076        7.33251425032135
 C         -10.28835131624761      -11.46559665730557        5.95481350453261
 C          -8.87658796326368      -11.74944308741286        5.47180674524102
 C         -10.71510456582856       -9.99538372186591        5.75874575709957
 O          -7.93688650823758      -11.21686516055300        6.02744257555484
 C         -12.18029888742090       -9.81128208825194        6.14884360966706
 C          -9.81262729244982       -9.02317580966936        6.51622907837980
 H         -10.32388217937365      -11.18751133353036        8.04121948251537
 H         -10.97602569457086      -12.10400342366882        5.38037722517282
 H         -10.61227805351707       -9.77631375487317        4.68164341280647
 H         -12.33123799503148      -10.05505096146553        7.20048830240699
 H         -12.51021894353691       -8.78327015301474        5.99549552318096
 H         -12.83316756844722      -10.46423261233420        5.56884413976875
 H          -9.91243089396909       -9.15194547159301        7.59249329433159
 H          -8.76343493252511       -9.18106056587091        6.26453226781157
 H         -10.06244466226256       -7.98621075595083        6.28835192297472
 N          -8.67655657379340      -12.67576565570974        4.45330420833534
 C          -7.45116029760460      -13.46422294391673        4.46138780352023
 C          -6.72214636374464      -13.48327190189017        3.17362468466858
 O          -7.09624972012240      -14.17943292270065        2.25337850484330
 H          -9.47761126465065      -13.18358668916126        4.07413640965434
 H          -6.80736014879468      -13.05229851358479        5.24565959243855
 H          -7.68795298085259      -14.49043572445224        4.76428114585225
 N          -5.59648912195120      -12.70235637164422        3.11455199646787
 C          -4.80084158411943      -12.69696413368249        1.93044996098077
 C          -4.79096044836035      -11.33790982372365        1.27579684373909
 O          -5.83972386406643      -10.75696184897408        1.15995111239635
 H          -5.42671505414448      -11.94589802841140        3.78062564113363
 H          -3.80044828936641      -13.05278376361457        2.18878469797738
 H          -5.23710682810230      -13.42312799363537        1.23485540298810
 N          -3.58276773251571      -10.78178216796653        0.82558031774047
 C          -2.30800467042119      -11.31801616988062        0.79561381510950
 H          -3.68769968883720       -9.90263390429114        0.28668762863454
 H          -1.61228883837032      -10.76473212387091        1.41386470684266
 H          -2.31599172675863      -12.34534404979568        1.17873633114644
51
 energy: -8.559766106654 gnorm: 0.000146368090 xtb: 6.6.1 (8d0f1dd)
 C         -12.35478156076182      -14.19642084744208        9.36308709140143
 C         -14.29210941344625      -15.56208065921057        8.44569058375993
 O         -12.77301172125191      -13.11185115075367        9.01272293076799
 H         -13.70376960470684      -15.87741109002067        7.60765755830273
 H         -15.01557159673633      -16.32163603487639        8.70685923165393
 H         -14.80639668538925      -14.64917627134109        8.20551281999324
 N         -11.05157597292286      -14.54303080070935        9.45745006680596
 C         -10.01088518274601      -13.58607238399409        9.12273536004816
 C         -10.13285087049269      -13.23144243363283        7.65688819364312
 C          -8.62110306918371      -14.10024310635964        9.44315796544107
 O          -9.99332952736328      -14.10810111803813        6.82905295170170
 H         -10.74567558737058      -15.48954896256928        9.70121386831930
 H         -10.22417240206632      -12.68349443300140        9.71617604854405
 H          -8.40518124627299      -14.98627816206599        8.84712650635651
 H          -7.86006919189181      -13.35361219944771        9.21189818677792
 H          -8.53068419434786      -14.36976813083658       10.49563208091343
 N         -10.39384563300333      -11.91699923894194        7.33251923529839
 C         -10.28835586319750      -11.46560130722419        5.95480986706052
 C          -8.87659493544268      -11.74944237150098        5.47180288982614
 C         -10.71511007597340       -9.99537976662828        5.75874959259871