52
 energy: -9.921924475524 gnorm: 0.176300894963 xtb: 6.6.1 (8d0f1dd)
 N         -21.00600000000000      -19.77000000000000       22.77300000000000
 C         -21.10800000000000      -18.71000000000000       21.72800000000000
 C         -19.90000000000000      -18.80400000000000       20.84600000000000
 C         -21.21200000000000      -17.31500000000000       22.34700000000000
 O         -18.79400000000000      -18.61700000000000       21.31300000000000
 C         -22.39600000000000      -17.15500000000000       23.23200000000000
 C         -23.72800000000000      -17.19200000000000       22.86300000000000
 N         -22.38200000000000      -16.97100000000000       24.58700000000000
 C         -23.70000000000000      -16.90100000000000       24.96800000000000
 N         -24.51400000000000      -17.03400000000000       23.94500000000000
 H         -21.85200000000000      -19.82200000000000       23.35700000000000
 H         -22.00700000000000      -18.89900000000000       21.12300000000000
 H         -20.30099999999999      -17.12000000000000       22.91900000000000
 H         -21.23600000000000      -16.55600000000000       21.55800000000000
 H         -21.55900000000000      -16.89100000000000       25.18400000000000
 H         -24.10300000000000      -17.33000000000000       21.85900000000000
 H         -24.04000000000000      -16.75700000000000       25.98600000000000
 H         -20.83700000000000      -20.68900000000000       22.32800000000000
 H         -20.19900000000000      -19.57400000000000       23.37700000000000
 N         -20.10400000000000      -19.13700000000000       19.52500000000000
 C         -18.98300000000000      -19.60600000000000       18.73800000000000
 C         -18.85300000000000      -18.75600000000000       17.49400000000000
 C         -19.12800000000000      -21.09700000000000       18.41000000000000
 O         -19.04100000000000      -19.18700000000000       16.37300000000000
 C         -19.36600000000000      -21.90300000000000       19.63800000000000
 C         -20.58900000000000      -22.22000000000000       20.20200000000000
 N         -18.42000000000000      -22.32200000000000       20.53200000000000
 C         -19.11199999999999      -22.87200000000000       21.58400000000000
 N         -20.41000000000000      -22.79900000000000       21.40200000000000
 H         -21.02600000000000      -19.40000000000000       19.17700000000000
 H         -18.08900000000000      -19.46400000000000       19.35200000000000
 H         -19.96100000000000      -21.23000000000000       17.71300000000000
 H         -18.23600000000000      -21.45700000000000       17.88800000000000
 H         -17.41000000000000      -22.20000000000000       20.45300000000000
 H         -21.56000000000000      -22.00300000000000       19.77800000000000
 H         -18.65500000000000      -23.29100000000000       22.47100000000000
 N         -18.55000000000000      -17.43400000000000       17.70700000000000
 C         -18.65700000000000      -16.46300000000000       16.63300000000000
 C         -17.41400000000000      -16.48500000000000       15.79500000000000
 C         -18.99299999999999      -15.05600000000000       17.17300000000000
 O         -16.46600000000000      -15.79700000000000       16.09200000000000
 C         -18.12300000000000      -14.65900000000000       18.34800000000000
 O         -18.30100000000000      -15.28400000000000       19.38800000000000
 O         -17.32100000000000      -13.74700000000000       18.17500000000000
 H         -18.48400000000000      -17.05800000000000       18.66400000000000
 H         -19.49200000000000      -16.80900000000000       15.99800000000000
 H         -18.87700000000000      -14.31200000000000       16.37800000000000
 H         -20.03700000000000      -15.02000000000000       17.50200000000000
 N         -17.44100000000000      -17.33500000000000       14.73400000000000
 C         -16.29600000000000      -17.48600000000000       13.86900000000000
 H         -18.14000000000000      -18.08400000000000       14.69200000000000
 H         -15.45300000000000      -17.80100000000000       14.53100000000000
52
 energy: -9.929810729774 gnorm: 0.063338077938 xtb: 6.6.1 (8d0f1dd)
 N         -21.00644480280019      -19.76999312652243       22.77335934977326
 C         -21.10827637596407      -18.70940908656766       21.72917921938759
 C         -19.90008220036690      -18.80399432912953       20.84567529984419
 C         -21.21209070434106      -17.31480613072616       22.34698070800647
 O         -18.79413499116589      -18.61778504487751       21.31263983907504
 C         -22.39591494976768      -17.15481292985430       23.23205721318312
 C         -23.72823684158911      -17.19187668736312       22.86328536941554
 N         -22.38181956051813      -16.97092240545427       24.58715324084856
 C         -23.70021048399268      -16.90103710683578       24.96816946268789
 N         -24.51403082942672      -17.03398800171257       23.94517963745210
 H         -21.85187478736651      -19.82213421526065       23.35728998591298
 H         -22.00733976443407      -18.89854656716105       21.12369410263431
 H         -20.30119613270363      -17.12021201842656       22.91900456917847
 H         -21.23621570323982      -16.55591020355232       21.55819121311386
 H         -21.55883310099028      -16.89088430473629       25.18416149254783
 H         -24.10328343426524      -17.32986098908403       21.85899941160212
 H         -24.04005512761892      -16.75714166271844       25.98591474503368
 H         -20.83726813845513      -20.68889316854406       22.32785624726931
 H         -20.19933610433804      -19.57395741009853       23.37694059698286
 N         -20.10354296498774      -19.13745164226568       19.52449372288909
 C         -18.98390365947019      -19.60776921481363       18.73383182888756
 C         -18.85379232923837      -18.75605752503520       17.49358351776281
 C         -19.12813242636104      -21.09724010790279       18.40997165011523
 O         -19.04303874836068      -19.18580939092652       16.37280546198368
 C         -19.36605179896513      -21.90278643562074       19.63843789913024
 C         -20.58903416368454      -22.21972383555056       20.20227264663045
 N         -18.42005743721990      -22.32173366036975       20.53236335361611
 C         -19.11183775664157      -22.87171370077767       21.58409258553720
 N         -20.40984549910813      -22.79887828140814       21.40212762462672
 H         -21.02616503639804      -19.39996863543938       19.17676476214319
 H         -18.08820889237213      -19.46432661828329       19.35168590867280
 H         -19.96126025919100      -21.22997547820200       17.71315487772715
 H         -18.23627422185535      -21.45721514606459       17.88813677912515
 H         -17.41015862318963      -22.19977618927021       20.45340960089707
 H         -21.56011711849509      -22.00273682411500       19.77828672902741
 H         -18.65472550032338      -23.29073562550041       22.47138272548523
 N         -18.55089331960285      -17.43336425308620       17.70787051359306
 C         -18.65818132478102      -16.46077495163631       16.63483481943587
 C         -17.40677643318961      -16.48219396472778       15.80167915080214
 C         -18.99385454271904      -15.05611471277254       17.17294176511497
 O         -16.46464987961390      -15.79639866954541       16.09741451239138
 C         -18.12429674692920      -14.65858952878814       18.34836624037446
 O         -18.30184314125394      -15.28393623393078       19.38814708679826
 O         -17.32332805104911      -13.74602363378550       18.17572621421209
 H         -18.48428426751646      -17.05820574670025       18.66438104567333
 H         -19.49052217404779      -16.80919605557349       15.99731999142362
 H         -18.87726329692338      -14.31215658836002       16.37769707316743
 H         -20.03820388464643      -15.02061336632736       17.50092800856637
 N         -17.42134061525584      -17.34167152214426       14.72431534121293
 C         -16.30398396004657      -17.48796374701265       13.88741103369302
 H         -18.13016496251337      -18.08662609964867       14.69363038043964
 H         -15.46962293070547      -17.79710722578979       14.50680344489511
52
 energy: -9.930938308641 gnorm: 0.014991965272 xtb: 6.6.1 (8d0f1dd)
 N         -21.00670978246586      -19.77016364518723       22.77316298831476
 C         -21.10823974914673      -18.70908910460886       21.72963179031313
 C         -19.90024229440666      -18.80374047524600       20.84551291969438
 C         -21.21215733931331      -17.31487321608593       22.34673915143735
 O         -18.79436937726548      -18.61803421367140       21.31251280852977
 C         -22.39583102917216      -17.15483258191166       23.23200915047589
 C         -23.72840219807393      -17.19186331332892       22.86356985549866
 N         -22.38154129913574      -16.97108155500715       24.58719253764506
 C         -23.70018724606263      -16.90123808390596       24.96831797039447
 N         -24.51393030717531      -17.03405461471882       23.94541085288801
 H         -21.85182402154580      -19.82237186264940       23.35708628608210
 H         -22.00716298986745      -18.89839606471944       21.12364238484595
 H         -20.30133475951763      -17.12068071171769       22.91890811656918
 H         -21.23640418023998      -16.55582712730019       21.55824858564189
 H         -21.55852595320410      -16.89105588256035       25.18415428973132
 H         -24.10348466501820      -17.32976007866274       21.85913713748249
 H         -24.03979499234839      -16.75740961014970       25.98598825772557
 H         -20.83727048387309      -20.68896302975506       22.32736347421704
 H         -20.19953067384201      -19.57394592598355       23.37643865621261
 N         -20.10312455027665      -19.13741270067064       19.52466626539482
 C         -18.98453510713639      -19.60883350369068       18.73147556491218
 C         -18.85379773057000      -18.75611129690294       17.49351990809965
 C         -19.12811697719165      -21.09718793922249       18.41009212740880
 O         -19.04361498327172      -19.18550902773208       16.37279482671902
 C         -19.36603704429640      -21.90261814033862       19.63875184724831
 C         -20.58906032223151      -22.21954434301441       20.20246602939673
 N         -18.42003191264997      -22.32151074338806       20.53262135699123
 C         -19.11169361826587      -22.87153159873166       21.58421049274630
 N         -20.40973102177636      -22.79879644942320       21.40225465214890
 H         -21.02602884475278      -19.39980998513842       19.17700100642196
 H         -18.08837626965244      -19.46414466497865       19.35190269467319
 H         -19.96139277413613      -21.22988623488803       17.71327637556972
 H         -18.23623865418680      -21.45717103653193       17.88835288030495
 H         -17.41016671018054      -22.19954984303981       20.45368228928743
 H         -21.56015540705898      -22.00257690306786       19.77850397442504
 H         -18.65458716787749      -23.29044906620081       22.47166546688136
 N         -18.55113083434325      -17.43314236890178       17.70809499201075
 C         -18.66005272465840      -16.45963949021007       16.63577807470693
 C         -17.40563202510228      -16.48039122597065       15.80654035878530
 C         -18.99419254029553      -15.05626827605229       17.17265691745120
 O         -16.46475570066168      -15.79653964252200       16.09743964497049
 C         -18.12459427700634      -14.65846069822336       18.34836242620504
 O         -18.30197945308443      -15.28385627406126       19.38812355070988
 O         -17.32403529760747      -13.74573462990641       18.17577189879747
 H         -18.48438416033693      -17.05817136542601       18.66432834708196
 H         -19.49020136024641      -16.80951328058722       15.99687910907888
 H         -18.87730910097627      -14.31227349792217       16.37728568178319
 H         -20.03858439213354      -15.02071158011482       17.50051693609933
 N         -17.41163175958343      -17.34628644808519       14.71767844998004
 C         -16.30310767174366      -17.48876258319056       13.89675352594775
 H         -18.13316939078038      -18.08405513163863       14.69513181444143
 H         -15.47360687425381      -17.79716893305729       14.49839329962104
52
 energy: -9.931029149057 gnorm: 0.007043613501 xtb: 6.6.1 (8d0f1dd)
 N         -21.00681655218166      -19.77027634331076       22.77298452448515
 C         -21.10814811963483      -18.70900883798974       21.72968540907443
 C         -19.90032359993405      -18.80356903547094       20.84556394332399
 C         -21.21222031426399      -17.31491148129993       22.34663068738092
 O         -18.79444391210206      -18.61799089499269       21.31261264722839
 C         -22.39586218867239      -17.15485593721969       23.23197595468187
 C         -23.72849566287896      -17.19187528541111       22.86368108854445
 N         -22.38147443020333      -16.97118097406071       24.58718606710752
 C         -23.70017062390565      -16.90135973097366       24.96837800477673
 N         -24.51391973079199      -17.03410346393627       23.94551569160905
 H         -21.85188967893384      -19.82247428010806       23.35693897271367
 H         -22.00695022168142      -18.89839690421817       21.12348521233105
 H         -20.30143021198797      -17.12085500697561       22.91890914501206
 H         -21.23652917025629      -16.55574573874355       21.55825878887916
 H         -21.55843824775985      -16.89115183858140       25.18411450726698
 H         -24.10354579808453      -17.32971295110697       21.85921822078035
 H         -24.03963748368759      -16.75754284646828       25.98608743408937
 H         -20.83723563296941      -20.68902416932611       22.32711495246143
 H         -20.19960131131885      -19.57393209693465       23.37614995139688
 N         -20.10294920412218      -19.13727254158312       19.52493682341012
 C         -18.98465651200824      -19.60903862855308       18.73112881528106
 C         -18.85364494371928      -18.75609432174446       17.49359557968104
 C         -19.12810338767852      -21.09714803526249       18.41011427176143
 O         -19.04349054617769      -19.18560188705482       16.37281105804254
 C         -19.36602150475261      -21.90259401528943       19.63880196971061
 C         -20.58905211590005      -22.21950325890146       20.20252751759011
 N         -18.41999940135041      -22.32147944622643       20.53263904138372
 C         -19.11162497290794      -22.87150974103546       21.58423915828365
 N         -20.40967043793600      -22.79875994144820       21.40231346188233
 H         -21.02588199368341      -19.39974757720206       19.17719401302638
 H         -18.08854629190754      -19.46404552833513       19.35196921865576
 H         -19.96143244269488      -21.22987738753982       17.71329712737938
 H         -18.23623568411584      -21.45716401840727       17.88833836679064
 H         -17.41014033578180      -22.19952759909859       20.45366969782758
 H         -21.56013904269615      -22.00252710652433       19.77860758595967
 H         -18.65455068554983      -23.29034214991605       22.47174993104039
 N         -18.55088753588772      -17.43322628937683       17.70801523111873
 C         -18.66073700248972      -16.45964651864151       16.63571086362704
 C         -17.40702539743335      -16.48018110338028       15.80770182145905
 C         -18.99409359598613      -15.05629906837050       17.17255630335141
 O         -16.46540570152473      -15.79667259294804       16.09540490195661
 C         -18.12433693220746      -14.65848668157346       18.34828547883284
 O         -18.30169921568034      -15.28385431234969       19.38806978846529
 O         -17.32377041084326      -13.74581209906966       18.17559776595809
 H         -18.48432449602825      -17.05813085966862       18.66425996001821
 H         -19.49044457928630      -16.80955421593803       15.99681146528246
 H         -18.87720822682933      -14.31224682800280       16.37723251560229
 H         -20.03843785498585      -15.02059821354650       17.50067560458409
 N         -17.41046989877294      -17.34808033194847       14.71662975803109
 C         -16.30097042850823      -17.48850712604871       13.89768895658026
 H         -18.13686779946145      -18.08204573453975       14.69520668959387
 H         -15.47204852984383      -17.79745702334665       14.49972805468881
52
 energy: -9.931054776050 gnorm: 0.001355431591 xtb: 6.6.1 (8d0f1dd)
 N         -21.00694749734252      -19.77037220371191       22.77279719705172
 C         -21.10807700689915      -18.70891606501851       21.72969517809527
 C         -19.90043374070566      -18.80340059557933       20.84561453819560
 C         -21.21229629050504      -17.31490590724538       22.34658937971063
 O         -18.79450442558522      -18.61794651692549       21.31269754538352
 C         -22.39591859894823      -17.15488745816680       23.23200150978029
 C         -23.72859302459338      -17.19191793147209       22.86384334208838
 N         -22.38142281589305      -16.97132470824561       24.58723575578125
 C         -23.70013201525139      -16.90155495201949       24.96851594087967
 N         -24.51392319762666      -17.03421377626963       23.94570034983604
 H         -21.85199043355743      -19.82252308363930       23.35682591379092
 H         -22.00678154281477      -18.89835984852038       21.12334492472435
 H         -20.30153168719506      -17.12096576082909       22.91897420957131
 H         -21.23668773540776      -16.55560864833597       21.55833042579220
 H         -21.55835859330173      -16.89127646089727       25.18411955248645
 H         -24.10357637324180      -17.32967103462175       21.85934935260620
 H         -24.03941506803212      -16.75775454335733       25.98629916626797
 H         -20.83724705382749      -20.68907033295137       22.32687290917242
 H         -20.19966122184703      -19.57390491997318       23.37582752607047
 N         -20.10284967439252      -19.13712153068777       19.52514297021551
 C         -18.98472065962433      -19.60910144645063       18.73104748720208
 C         -18.85356634333204      -18.75605603691696       17.49366262119875
 C         -19.12811601588960      -21.09711383247838       18.41012408213422
 O         -19.04337438658134      -19.18570169102380       16.37282263161248
 C         -19.36603172238304      -21.90256106162363       19.63882983540982
 C         -20.58906233720445      -22.21945486192412       20.20256949116220
 N         -18.42000112269542      -22.32144239821448       20.53265206592019
 C         -19.11160705880019      -22.87147736789785       21.58426778715234
 N         -20.40965413516624      -22.79869464848809       21.40236922427361
 H         -21.02578241995619      -19.39970147579889       19.17728361513010
 H         -18.08866570666393      -19.46397749526383       19.35198355586646
 H         -19.96145925811322      -21.22987422786712       17.71330438735374
 H         -18.23627383236088      -21.45716943649805       17.88831170243516
 H         -17.41014584108063      -22.19950376925874       20.45366877357973
 H         -21.56014229260414      -22.00246231854845       19.77868157232894
 H         -18.65458070980014      -23.29020672737196       22.47185180892524
 N         -18.55057193981729      -17.43331330307700       17.70791989094277
 C         -18.66108403691078      -16.45984282675348       16.63538988412400
 C         -17.40834885685176      -16.48012144701417       15.80834535762785
 C         -18.99399601427116      -15.05630646376313       17.17245654868782
 O         -16.46599611924117      -15.79673483657949       16.09346488383662
 C         -18.12412543215762      -14.65850184238145       18.34818789224285
 O         -18.30149181950733      -15.28383931028818       19.38798248761022
 O         -17.32352966124603      -13.74587918983209       18.17539853755594
 H         -18.48433519000909      -17.05807794204802       18.66420555096149
 H         -19.49067681533543      -16.80957570445426       15.99671414909998
 H         -18.87713535256438      -14.31221740112956       16.37718634837724
 H         -20.03830519585567      -15.02051178177167       17.50077241575094
 N         -17.40944699153209      -17.34968867315433       14.71663323116828
 C         -16.29940788625159      -17.48814495208962       13.89765621123844
 H         -18.13935325259137      -18.08047313407640       14.69504266198004
 H         -15.47066359663349      -17.79757611749443       14.50143561961022
52
 energy: -9.931055965299 gnorm: 0.000533746740 xtb: 6.6.1 (8d0f1dd)
 N         -21.00705943685505      -19.77037517586599       22.77269039778040
 C         -21.10810300935209      -18.70883629110184       21.72964978428106
 C         -19.90051013829059      -18.80334087403595       20.84558835857394
 C         -21.21234616195763      -17.31485641180986       22.34662894506992
 O         -18.79453868858503      -18.61797267296028       21.31266789749394
 C         -22.39595841600857      -17.15492366118415       23.23207959279401
 C         -23.72864507408115      -17.19198557848205       22.86398825838632
 N         -22.38139643927384      -16.97146655673639       24.58732798796327
 C         -23.70008512404399      -16.90176337693342       24.96867866597810
 N         -24.51393013270362      -17.03436444361420       23.94589151616476
 H         -21.85207320147744      -19.82246850714958       23.35678653984955
 H         -22.00680132802535      -18.89826387263109       21.12328694323926
 H         -20.30158291812445      -17.12096539312171       22.91904058223399
 H         -21.23679659025538      -16.55549118724615       21.55843152623146
 H         -21.55830985849808      -16.89139239397254       25.18417744803973
 H         -24.10357949381018      -17.32966324288201       21.85946985311874
 H         -24.03923572051827      -16.75798800357571       25.98651637733184
 H         -20.83734230634728      -20.68905788277631       22.32674529256000
 H         -20.19970756496262      -19.57387848193948       23.37563009458058
 N         -20.10287306402560      -19.13706885491852       19.52511189995679
 C         -18.98471074371001      -19.60904294231437       18.73110575516527
 C         -18.85356813308061      -18.75603651473567       17.49364976444502
 C         -19.12811466317821      -21.09709514766700       18.41013890072060
 O         -19.04335481149356      -19.18571191079707       16.37280591349688
 C         -19.36604601772978      -21.90251350519233       19.63885599781621
 C         -20.58908061434011      -22.21940966146268       20.20257603748633
 N         -18.42003045049695      -22.32138455101675       20.53269913455187
 C         -19.11164850545138      -22.87141822282488       21.58430369303206
 N         -20.40969292899110      -22.79862173877504       21.40239519174756
 H         -21.02579166156243      -19.39968635849511       19.17720783203103
 H         -18.08866337833823      -19.46394819990256       19.35197710148242
 H         -19.96143062097860      -21.22986996488893       17.71330553339581
 H         -18.23627418389938      -21.45716135068335       17.88834273945060
 H         -17.41017454422138      -22.19944436950139       20.45374131768133
 H         -21.56015641908141      -22.00241479222531       19.77867565134914
 H         -18.65465934069813      -23.29008404393667       22.47194426528869
 N         -18.55045857340503      -17.43330859863291       17.70789910471580
 C         -18.66102013727302      -16.45993632129202       16.63518960376285
 C         -17.40853884089025      -16.48009788245875       15.80833053768057
 C         -18.99398422377198      -15.05628682099129       17.17239080313973
 O         -16.46603763457930      -15.79674862333262       16.09318872707087
 C         -18.12411247963512      -14.65848041073624       18.34811082229550
 O         -18.30150474630660      -15.28379882780687       19.38790277140641
 O         -17.32350987928494      -13.74586615520122       18.17529003393214
 H         -18.48440080512066      -17.05803999454328       18.66418183877017
 H         -19.49068609214009      -16.80959059856042       15.99664234581519
 H         -18.87711301538931      -14.31223169915157       16.37709526943770
 H         -20.03829060392480      -15.02050805672621       17.50067149256724
 N         -17.40882434028195      -17.35002102745980       14.71707720515503
 C         -16.29943054353548      -17.48823593303585       13.89735382148028
 H         -18.13926518457728      -18.08032483320352       14.69494969727736
 H         -15.47055121543671      -17.79755807951105       14.50161313472467
52
 energy: -9.931056135669 gnorm: 0.000160884737 xtb: 6.6.1 (8d0f1dd)
 N         -21.00718427093128      -19.77034456812045       22.77258460497811
 C         -21.10817514734137      -18.70875532321534       21.72957677809778
 C         -19.90058064159048      -18.80330451233927       20.84553376411772
 C         -21.21238959432171      -17.31480703774308       22.34665752985174
 O         -18.79459234290584      -18.61801764967512       21.31261230038178
 C         -22.39597347344990      -17.15496240994230       23.23216654738078
 C         -23.72867810031858      -17.19205416782573       22.86414951448559
 N         -22.38133745254745      -16.97161885919376       24.58742987930351
 C         -23.70000256211076      -16.90198770587130       24.96886273719169
 N         -24.51390818959949      -17.03453040298589       23.94611213796961
 H         -21.85216491836360      -19.82238496975820       23.35673265171799
 H         -22.00688271224251      -18.89814024877989       21.12321472911272
 H         -20.30161156731173      -17.12096162811332       22.91905923010637
 H         -21.23689076446764      -16.55538784698518       21.55851661606613
 H         -21.55822309887207      -16.89152049032858       25.18423870032562
 H         -24.10359623619216      -17.32964977762030       21.85961351889533
 H         -24.03903102207469      -16.75824497350266       25.98674518488301
 H         -20.83748281402287      -20.68902251631143       22.32662385817284
 H         -20.19977988029411      -19.57385649738968       23.37545762689377
 N         -20.10290962254328      -19.13703996250855       19.52503787707490
 C         -18.98470208118509      -19.60900136086455       18.73111426061232
 C         -18.85353870738979      -18.75603976351579       17.49361447509361
 C         -19.12809301091657      -21.09707603130099       18.41016273089113
 O         -19.04331567231915      -19.18572360435435       16.37278203133041
 C         -19.36605422519436      -21.90246252179549       19.63889256182307
 C         -20.58910192297566      -22.21936375868667       20.20257674615427
 N         -18.42006211683510      -22.32131320002076       20.53276849324406
 C         -19.11170366318724      -22.87134090817896       21.58435379190398
 N         -20.40974618652942      -22.79854573971670       21.40241578560736
 H         -21.02581440533844      -19.39966813291960       19.17712485243972
 H         -18.08866790584177      -19.46390269910347       19.35199266602820
 H         -19.96138383127805      -21.22987046691560       17.71330698459895
 H         -18.23623444027258      -21.45714462534311       17.88840331054611
 H         -17.41020457815607      -22.19936238101677       20.45384597134712
 H         -21.56016916009014      -22.00237935438657       19.77864757030683
 H         -18.65474837084545      -23.28995503615805       22.47204341659320
 N         -18.55043175725659      -17.43329460633442       17.70787753694129
 C         -18.66098552844002      -16.45994422859873       16.63511615267219
 C         -17.40849916797952      -16.48008693613613       15.80827584522295
 C         -18.99398621281526      -15.05628427756312       17.17229642385599
 O         -16.46597650349704      -15.79676822302482       16.09323782056164
 C         -18.12414193051275      -14.65845216145528       18.34802288471522
 O         -18.30156611311413      -15.28374923196386       19.38781925888055
 O         -17.32354511265245      -13.74583313701623       18.17519801892615
 H         -18.48444402873139      -17.05800551892836       18.66413670664269
 H         -19.49062798545057      -16.80963184313451       15.99655901684641
 H         -18.87708813110319      -14.31226091025117       16.37696491478231
 H         -20.03829914549666      -15.02052062192356       17.50051746002054
 N         -17.40851647614318      -17.34999707626331       14.71719619235074
 C         -16.29943587264678      -17.48840482881054       13.89732440308271
 H         -18.13900183251795      -18.08043141617153       14.69493574182805
 H         -15.47051951178604      -17.79759384993696       14.50155018714318
52
 energy: -9.931056022210 gnorm: 0.000520413680 xtb: 6.6.1 (8d0f1dd)
 N         -21.00735778162199      -19.77030183719379       22.77243959745406
 C         -21.10827835153362      -18.70864878586011       21.72947423400907
 C         -19.90067683485911      -18.80325490497478       20.84546212524831
 C         -21.21245005955799      -17.31474306318265       22.34668681461268
 O         -18.79467020993700      -18.61807196487108       21.31254472470994
 C         -22.39598978751731      -17.15501237081791       23.23228134554478
 C         -23.72872062483387      -17.19214267498927       22.86437026718017
 N         -22.38124884873886      -16.97182291921796       24.58756501772591
 C         -23.69988163487193      -16.90228824186518       24.96911349596758
 N         -24.51387153886580      -17.03475171123153       23.94641550039723
 H         -21.85229771539461      -19.82227356812383       23.35665164803516
 H         -22.00699535616343      -18.89797413658414       21.12310843776568
 H         -20.30164824644092      -17.12095849234498       22.91906910144526